60
Lattice="40.0 0.0 0.0 0.0 40.0 0.0 0.0 0.0 40.0" Properties=species:S:1:pos:R:3 energy=4.467314756952892 minima_index=1 pbc="T T T"
C       20.78073367      18.65920967      21.22602353
C       19.10527779      18.81383152      18.76335134
C       20.93485218      19.27709985      19.76757206
C       19.75552966      21.80545085      20.25456743
C       22.04947579      19.58420550      20.87983515
C       18.34521935      20.85263601      21.00633420
C       20.34315592      19.88684798      22.59231895
C       21.97024915      20.60938408      22.08782336
C       19.66396295      17.83057479      17.56404668
C       19.59120660      18.43028746      20.21146861
C       18.35077721      18.44241416      17.33975731
C       18.42987891      20.55090390      18.42092469
C       19.28595019      20.06098851      19.92787816
C       20.59010547      20.38837738      21.02490007
C       17.63342737      20.14738258      19.73081618
C       17.96864484      19.90770999      17.08694057
C       17.90241921      18.68505622      19.72413858
C       19.24586278      21.28473246      17.29278912
C       19.59509557      21.12420174      23.40761326
C       17.61628664      19.26676519      18.37470870
C       19.15676847      19.43284779      21.55057143
C       17.66021357      19.36509103      21.07313576
C       19.49148831      21.86425927      18.69063564
C       18.32435300      17.94698540      20.88578323
C       21.05785842      21.93609125      21.14675430
C       20.62269582      18.14672454      22.68777622
C       18.41571018      21.48146719      19.66565966
C       22.37636937      19.99145843      19.46071651
C       17.78068914      19.51030919      22.54945374
C       19.59938800      19.54945849      17.31233086
C       20.33955914      21.00758226      16.36720681
C       20.92570280      20.77593868      23.92724880
C       20.92749551      18.55851398      17.08962205
C       21.12053596      21.05062280      19.55573287
C       18.93732859      20.51132454      16.07135158
C       21.81707222      19.03903417      22.32257521
C       20.88233797      21.50447067      22.61226412
C       21.93782514      22.22844060      18.47684840
C       19.54203664      17.80838558      21.72503039
C       20.58537503      18.35737146      18.55694607
C       18.44243236      20.81490374      22.50441234
C       20.78606032      21.60708659      17.75907282
C       18.63296082      19.06921983      16.01659157
C       19.61177140      21.47491115      21.77922889
C       20.19546806      20.30337731      18.54870448
C       22.08437043      20.78025265      18.04683230
C       22.31933343      21.12834218      20.72351823
C       22.77146166      21.39523006      19.30306694
C       21.87434959      22.43268258      19.96744407
C       20.12983868      19.65076035      15.80505759
C       21.64215014      19.36607035      18.28235686
C       19.96729589      19.71787580      24.21838906
C       19.27892425      18.63311515      23.15129038
C       18.66204065      19.90054710      23.65396092
C       21.21145200      20.04033831      16.96008979
C       18.18174888      18.18868420      22.28634861
C       21.96718561      20.01761362      23.42457193
C       21.08363259      18.96685951      23.77091535
C       19.82639349      18.27804455      16.20361652
C       20.67221522      22.55964785      19.18307978
60
Lattice="40.0 0.0 0.0 0.0 40.0 0.0 0.0 0.0 40.0" Properties=species:S:1:pos:R:3 energy=4.447681632841796 minima_index=2 pbc="T T T"
C       20.91980468      18.53933368      21.18178554
C       18.86459005      18.79274592      18.72002246
C       21.02742141      19.19040761      19.81454298
C       19.95963092      22.06888007      20.19618286
C       22.14510716      19.59131789      21.07370846
C       17.87988940      20.73528319      21.06056275
C       20.24253426      20.01056747      22.56576728
C       21.71619636      20.84930275      22.27109849
C       19.51845375      17.89013917      17.56221343
C       19.67503246      18.34940132      20.04016723
C       18.28393019      18.61784857      17.16845127
C       18.39923780      20.63110209      18.53805877
C       19.08796511      19.93512634      20.06991470
C       20.73766657      20.32067128      21.01095865
C       17.49025325      20.24015829      19.71229055
C       18.02958642      20.13529181      17.04645793
C       17.66851959      18.83290123      19.64896296
C       19.17345439      21.29923058      17.35466382
C       19.48656532      21.25810118      23.34349217
C       17.53823275      19.42162802      18.25236433
C       19.31784260      19.19757787      21.50989278
C       17.71899541      19.29175594      21.14346394
C       19.56167838      21.79085287      18.74529585
C       18.33896727      18.00054070      20.66287974
C       21.16695814      21.97200473      21.07007359
C       20.46295597      18.03755233      22.48636922
C       18.59403353      21.42621613      19.90945863
C       22.41452845      19.86677765      19.62212128
C       18.05724613      19.19024773      22.66033552
C       19.58031850      19.66214815      17.40984068
C       20.32600355      21.10398206      16.47057265
C       20.95715502      21.31503853      23.58227577
C       20.80789544      18.61144673      17.12037873
C       21.20056769      20.97324077      19.58771229
C       19.02627895      20.64187156      16.00589536
C       21.67994655      19.13875383      22.40573227
C       20.39152004      21.76443826      22.31318271
C       22.12893824      22.05882969      18.55170767
C       19.65117480      17.56703497      21.33749856
C       20.40172648      18.32148291      18.60795135
C       18.48084072      20.56721230      22.41339369
C       20.81464781      21.44589174      17.90799882
C       18.67728376      19.26387627      15.90660693
C       19.37631124      21.17896191      21.29904963
C       20.07495020      20.18802134      18.80555708
C       22.22358177      20.60157066      18.23153317
C       22.40222589      21.05166629      20.87821142
C       22.93034912      21.22434853      19.46828967
C       22.12667352      22.34984080      19.99897978
C       20.22581750      19.69563630      15.93043743
C       21.53168005      19.29945278      18.33618678
C       20.34169008      20.13521693      24.21165046
C       19.34569733      18.60617404      23.24504884
C       18.95946538      19.92956095      23.72928761
C       21.22397944      20.11958500      17.08244718
C       18.51290511      17.93439768      22.13304927
C       21.70660078      20.05981859      23.56634817
C       20.82668479      18.85340467      23.65594465
C       19.69792746      18.33122047      16.21512128
C       20.89188507      22.52291085      19.15055290
60
Lattice="40.0 0.0 0.0 0.0 40.0 0.0 0.0 0.0 40.0" Properties=species:S:1:pos:R:3 energy=4.437474437218177 minima_index=3 pbc="T T T"
C       20.88840489      18.51412721      21.22951610
C       18.85578787      18.73130222      18.79265273
C       21.34008294      19.02333894      19.84313015
C       19.76730342      21.48165619      20.14710080
C       22.19406793      19.72885211      20.97774693
C       18.02619204      21.01934473      21.04219794
C       20.29407359      20.09478351      22.56430716
C       21.79230859      20.80797002      22.08092460
C       19.57886599      17.87442069      17.68034881
C       19.76883400      18.49753161      20.06877282
C       18.30071063      18.59656623      17.28397079
C       18.45001018      20.59499013      18.58356436
C       18.97957011      19.98506954      20.17070438
C       20.65417114      20.16366903      20.92511616
C       17.43958704      20.32790001      19.81058567
C       18.05017278      20.08918520      17.11934606
C       17.68329727      18.90708666      19.81349832
C       19.16051683      21.28537581      17.30717108
C       19.56168181      21.35960118      23.28743456
C       17.56752950      19.40635971      18.41149913
C       19.30914454      19.26322771      21.62074063
C       17.72177670      19.53589847      21.25755508
C       19.42424901      21.82941103      18.68555203
C       18.35655709      18.16259034      20.86684141
C       21.13553668      21.79148926      20.94477005
C       20.18973988      18.01320645      22.52415010
C       18.31828230      21.57156518      19.75932845
C       22.57232089      19.92115857      19.48644747
C       18.11077014      19.19150135      22.74981452
C       19.63431295      19.66993837      17.45455175
C       20.35068968      20.98223712      16.40608004
C       21.01468535      21.25565276      23.64538889
C       20.83219269      18.55361214      17.16914097
C       21.28876373      20.83374161      19.49832819
C       19.02265892      20.59132341      16.00857252
C       21.68143683      19.15855315      22.29932908
C       20.70428872      21.83691761      22.37533721
C       21.89841251      22.06186233      18.36708974
C       19.63416252      17.56284056      21.25558164
C       20.51050479      18.35462990      18.68198933
C       18.37678484      20.60005347      22.44192103
C       20.67621042      21.21247588      17.88491840
C       18.56376295      19.24247073      15.98544674
C       19.48649346      21.31423841      21.65475385
C       20.06911393      19.97516645      18.95906661
C       22.15962927      20.68791562      17.88318032
C       22.50714703      21.12710946      20.62161069
C       22.87041162      21.26974824      19.10679771
C       22.03797999      22.31992808      19.82223480
C       20.15426939      19.58852260      15.88006716
C       21.59811605      19.40670914      18.33063386
C       20.26807997      20.08990738      24.17585212
C       19.38535602      18.87560364      23.51250218
C       18.85108801      20.20837828      23.78178958
C       21.27457768      19.93604290      16.87623906
C       18.69171645      17.93652182      22.35040489
C       21.74031066      20.06955151      23.46954381
C       20.90661762      18.86252033      23.54821141
C       19.60341737      18.30683760      16.30709859
C       20.71526278      22.33981042      19.21154953
60
Lattice="40.0 0.0 0.0 0.0 40.0 0.0 0.0 0.0 40.0" Properties=species:S:1:pos:R:3 energy=4.401199770961641 minima_index=4 pbc="T T T"
C       21.03253209      18.37935723      21.22089160
C       19.06723925      18.21467536      19.17277741
C       21.75931379      19.09959871      20.14280095
C       19.75427813      21.83544673      20.42481683
C       22.46148714      20.04416544      21.07575440
C       18.30793598      21.99639681      20.85184982
C       19.89145740      20.67811992      22.07732802
C       21.82459522      21.12272732      22.01385364
C       20.01405176      17.44622069      18.24435446
C       20.03497756      19.08400359      20.08617990
C       18.75143633      17.90914634      17.60563136
C       18.21240118      20.37584116      18.47518225
C       19.06109593      20.36480433      20.59840596
C       20.90548931      20.38072109      20.82285582
C       17.56751547      20.79678156      20.39539034
C       18.27096429      19.59643554      17.08919730
C       18.05428097      19.43380050      19.73568986
C       19.25925164      20.75858371      17.37023611
C       18.78363857      21.40308276      23.10609464
C       17.97967386      18.90406695      18.33358915
C       19.46245143      19.09374176      21.69050894
C       17.73916443      19.53446751      21.30059812
C       19.64465523      21.76383050      18.53877375
C       18.45281579      18.20757901      20.63987277
C       21.07580653      22.16476235      21.08311713
C       20.23903837      17.81508762      22.33128695
C       18.49224189      21.48875904      19.43329070
C       22.54951334      20.28153088      19.57407956
C       17.95139400      18.34754683      22.14201881
C       19.78423500      19.16936657      17.76555551
C       20.46559097      20.43828158      16.39530046
C       20.03702133      21.44992698      23.67529439
C       21.15729449      18.29509546      17.62372372
C       21.10799865      21.13632106      19.45385167
C       19.22463581      19.93104724      16.04085201
C       21.45652931      19.53311265      22.08987544
C       20.73485968      22.02354147      22.54594314
C       21.55917337      22.26198147      18.39922534
C       19.82932433      17.62888436      20.71416305
C       20.81914648      18.14655720      19.17866024
C       18.08665778      20.99058084      21.88765708
C       20.78992742      21.08603469      17.72789018
C       19.03555816      18.53405216      16.30720781
C       19.37420393      22.15418874      21.94538383
C       19.69796095      20.24020453      19.00038173
C       22.21184448      20.77672349      18.15999982
C       22.41234040      21.48187082      20.60662461
C       22.72912252      21.71777122      19.12299927
C       21.83339246      22.65869857      19.82899637
C       20.51059067      18.96185186      16.22796010
C       21.27325025      19.56186993      18.69242687
C       19.42815652      20.08487333      23.59433870
C       19.07004859      18.43692114      23.12386876
C       18.27755622      19.71649138      22.77353173
C       21.46677590      19.69555829      17.17549642
C       18.95294972      17.39351918      21.87753128
C       21.04842823      20.55189721      23.20316405
C       20.42833815      19.11603241      23.10389730
C       20.11137480      17.67039761      16.82050774
C       20.48501656      22.63506536      19.36126479
60
Lattice="40.0 0.0 0.0 0.0 40.0 0.0 0.0 0.0 40.0" Properties=species:S:1:pos:R:3 energy=4.356186521107688 minima_index=5 pbc="T T T"
C       21.09552601      18.34854487      21.10606070
C       19.09195873      18.18857482      19.20960761
C       21.91588942      19.01484552      20.08794264
C       19.62134820      22.04840252      20.31911298
C       22.46908029      19.95440530      21.12512378
C       18.13193640      21.93318465      20.70053257
C       19.98272420      20.62385407      22.12547501
C       21.81299002      21.05177181      22.06671162
C       20.07126443      17.48407445      18.35566553
C       20.02461757      19.22939219      20.02504230
C       18.75131531      17.88469777      17.64025693
C       18.09065587      20.41119063      18.29075078
C       19.11274833      20.55061739      20.69902475
C       20.98445888      20.29541217      20.83591420
C       17.53042059      20.72151307      20.27682090
C       18.19393692      19.51477539      17.02518010
C       18.21924507      19.53598332      19.69585840
C       19.18677689      20.74048971      17.31430815
C       18.76550905      21.28174143      23.07771462
C       18.00904324      18.92634301      18.33439710
C       19.56548226      19.09758238      21.64581020
C       17.81471905      19.60563055      21.32806110
C       19.67591771      21.88804029      18.50466666
C       18.44427868      18.32061425      20.69023179
C       20.96454576      22.04805363      21.09344042
C       20.35665909      17.84301941      22.27562568
C       18.45336860      21.46941831      19.29166295
C       22.51835194      20.25814295      19.58594071
C       18.04990495      18.41249609      22.19660485
C       19.72233541      19.21469281      17.77577185
C       20.46851593      20.44925727      16.40399779
C       20.05125349      21.49388389      23.63362302
C       21.11707753      18.36009797      17.76984646
C       20.98147028      21.15438738      19.50200994
C       19.23720722      19.85870057      16.04066279
C       21.46754958      19.43584666      22.13100999
C       20.71214303      22.02378376      22.54072551
C       21.50143614      22.22934190      18.44817326
C       19.88084012      17.66979087      20.51488806
C       20.91070042      18.06806214      19.40059566
C       17.97279032      21.03917063      21.84688056
C       20.71665645      21.09473501      17.71598548
C       18.96413299      18.47086372      16.30292145
C       19.28097450      22.00105080      21.84569620
C       19.57225347      20.36994278      18.94253040
C       22.12464612      20.73219236      18.18290769
C       22.38988963      21.40092795      20.67392794
C       22.65968903      21.67549310      19.16584843
C       21.79427395      22.57823190      19.93794306
C       20.48695977      18.97461548      16.28079461
C       21.16097372      19.58423185      18.77477858
C       19.61798459      20.05984043      23.67393550
C       19.17685203      18.42201872      23.09578243
C       18.44759596      19.78375272      22.77620656
C       21.44742770      19.71042738      17.21314371
C       19.07810045      17.47976706      21.78720636
C       21.08990316      20.50808281      23.26589234
C       20.52640254      19.02180570      23.18395036
C       20.05967331      17.71489248      16.90040590
C       20.47761769      22.73729993      19.34841307
60
Lattice="40.0 0.0 0.0 0.0 40.0 0.0 0.0 0.0 40.0" Properties=species:S:1:pos:R:3 energy=4.302053294525318 minima_index=6 pbc="T T T"
C       21.12813472      18.54868118      21.14037478
C       18.84877277      17.82191093      19.38049765
C       22.10394442      19.01223378      20.08294653
C       19.52565768      22.29142050      20.04126349
C       22.58407033      20.02568375      21.06904635
C       18.17843856      21.95728280      20.56047994
C       20.13289305      20.47660755      22.07689937
C       21.81582258      21.11457558      21.98477941
C       20.11218191      17.45466927      18.73286213
C       19.86552157      19.04930335      19.80254169
C       18.84436542      17.55926374      17.87010736
C       17.90172472      20.39566321      18.48090471
C       19.28027728      20.66373615      20.57271646
C       21.02279551      20.13903594      20.70157267
C       17.72294299      20.72605107      19.96730294
C       17.95660350      19.73003038      17.15988249
C       18.25777977      19.30971887      19.68301535
C       19.00732734      20.76243812      17.42867110
C       19.02578868      21.36206490      22.92185957
C       18.10527358      18.77976740      18.24310713
C       19.47315070      19.12457661      21.44818822
C       17.88359393      19.61862963      21.15620505
C       19.78339024      22.06599307      18.42763087
C       18.30831933      18.10541955      20.76568841
C       20.83792209      21.92388464      20.96713674
C       20.37276544      17.95136749      22.24663647
C       18.46450700      21.72071743      19.05423028
C       22.52215562      20.31442825      19.51813806
C       18.04123666      18.52336965      22.18986605
C       19.65764473      19.15490995      17.95178959
C       20.25021045      20.25634413      16.42069987
C       20.21255853      21.43012043      23.72985572
C       21.12881661      18.33395074      18.03378952
C       20.89897974      21.22481493      19.49307714
C       18.98648841      19.80237810      16.18210435
C       21.74496158      19.56881369      22.15868413
C       20.64764593      21.96190207      22.51198874
C       21.37901300      22.17563402      18.30099239
C       19.86216055      17.67215822      20.63136247
C       21.10322939      18.04414683      19.62154065
C       18.12975822      21.00784025      21.67727844
C       20.55801766      20.96052573      17.68413778
C       18.81517845      18.47005330      16.70816481
C       19.36931603      22.00799831      21.61269667
C       19.45308127      20.47778871      18.96656300
C       22.01837643      20.71083602      18.14112976
C       22.39469329      21.42652832      20.60098065
C       22.55991111      21.74335541      19.05312984
C       21.83583612      22.60843362      19.94676477
C       20.32160804      18.80834011      16.46374465
C       21.12546435      19.62714244      18.92195230
C       19.66063705      20.09693547      23.64169307
C       19.25490627      18.62875048      23.06613359
C       18.47638085      19.89800030      22.67799812
C       21.30394326      19.60663013      17.29850110
C       19.05764955      17.51955247      21.92444752
C       21.24830778      20.57755106      23.28566472
C       20.67974691      19.14715121      23.07941750
C       20.11522143      17.61583061      17.21023579
C       20.64289960      22.90705811      19.32893010
60
Lattice="40.0 0.0 0.0 0.0 40.0 0.0 0.0 0.0 40.0" Properties=species:S:1:pos:R:3 energy=4.283746151699558 minima_index=7 pbc="T T T"
C       20.69391141      17.95692055      20.89281630
C       18.71461164      17.24612440      19.52415130
C       22.08344534      18.52958484      20.57932054
C       19.86063733      22.74213028      20.28860196
C       22.50760502      19.84784903      20.94294346
C       18.51337568      22.11162827      20.22182386
C       20.25498114      20.49476183      22.00338646
C       21.73941673      21.10049312      21.36097358
C       20.35788951      17.18090074      19.54577361
C       19.73623510      18.65430713      19.57624107
C       19.57795053      17.33014874      18.32555619
C       17.90383323      20.33642073      18.25613879
C       19.46935136      20.80791106      20.59374507
C       20.94974414      19.74082430      20.46476408
C       17.82774766      20.85334229      19.89470025
C       17.89274460      19.09631299      17.38501708
C       18.32209196      19.44772543      19.47205670
C       19.15613812      21.35682212      17.62246614
C       19.37471716      21.48238730      22.95211539
C       18.29195549      18.23904795      18.54456691
C       19.62092632      19.14977770      21.31813230
C       18.08171206      19.83698062      20.99694979
C       19.52082139      22.30887687      18.90268530
C       18.44121269      18.25594397      20.58378225
C       21.01750803      22.49366248      21.22720055
C       20.47377767      18.14420791      22.40528835
C       18.17911905      21.72496460      18.71893739
C       22.27587874      19.48476837      19.40742741
C       18.19864021      18.75398496      22.02746299
C       19.40141413      19.45136099      17.94314965
C       19.87221076      20.20414718      16.51333995
C       20.70075911      20.93580650      23.62291472
C       20.63967605      18.29337864      17.94621595
C       20.89191399      21.35244983      19.86280611
C       18.39546358      20.40362685      16.81782339
C       21.51876594      19.14390785      21.91059867
C       20.82878946      21.88378529      22.57223611
C       20.90602179      22.17145723      18.41018493
C       19.49122433      17.04174766      20.72727427
C       21.35450581      18.28619637      19.29580454
C       18.27341180      21.29615555      21.49412381
C       20.62733820      21.00142663      17.54615792
C       19.00875167      17.99642093      17.17099765
C       19.50639169      22.13981465      21.65000824
C       19.44331550      20.68353842      19.04982588
C       21.89724097      20.85858465      18.41284482
C       22.54239483      20.87021994      19.82565314
C       22.26036650      22.14706005      19.00289543
C       22.27048190      22.23435138      20.45525118
C       18.83376719      19.13395730      16.22503966
C       20.84447701      19.81790693      18.83110946
C       19.47604937      20.16537399      23.67108219
C       19.29368309      18.82933743      23.03723473
C       18.59047532      20.19813188      22.48544720
C       21.09246122      19.59928280      17.30246558
C       19.17178524      17.65436975      21.97051899
C       21.71392371      20.42572879      22.70558513
C       20.73169718      19.40789035      23.24824088
C       20.19796874      18.71223150      16.56711752
C       21.18529461      22.95154211      19.69102723
60
Lattice="40.0 0.0 0.0 0.0 40.0 0.0 0.0 0.0 40.0" Properties=species:S:1:pos:R:3 energy=4.212267432144495 minima_index=8 pbc="T T T"
C       21.11022344      18.08542659      20.75890172
C       18.73881954      17.62649084      19.84149851
C       22.40710844      19.09679802      20.40513598
C       19.75677040      22.47488380      20.15516129
C       22.27886692      20.43896399      21.33936034
C       18.41031240      21.88508513      19.76931684
C       20.50243358      19.99624610      22.10034293
C       20.69391661      21.23498039      21.10273934
C       20.37172345      17.39982596      19.54858624
C       19.75297870      18.82347132      19.47647280
C       19.42146503      17.46924305      18.41464557
C       17.62561729      19.75679789      18.46777426
C       19.23877921      20.64173971      20.62266725
C       21.05177481      19.70417541      20.35660014
C       17.61090180      20.62926118      19.85932487
C       17.65383539      18.80365320      17.26351714
C       18.15646109      19.16224048      19.83154973
C       19.09455956      21.22801414      17.46178933
C       20.21139166      21.73525836      22.69443619
C       18.10783216      18.21894429      18.55716563
C       19.61062623      19.08286253      21.08222093
C       17.88861295      19.92556487      21.21068257
C       19.51784628      22.05325195      18.65494446
C       18.23948859      18.34527137      21.12151000
C       20.81310611      22.66906535      21.46177269
C       20.59296468      18.22803104      22.22773825
C       17.97221343      21.21366135      18.45241901
C       22.35284894      19.57537933      19.00938230
C       18.61713713      19.42328846      22.38775000
C       19.24857508      19.31606318      17.89241187
C       19.67052036      20.16274676      16.53871732
C       21.12026418      20.86899911      23.51269394
C       20.64006191      18.25361026      18.03551302
C       20.74102962      21.18983282      19.48476095
C       18.08076420      20.22999292      17.08001478
C       21.85809048      18.98787711      21.82986554
C       21.68693742      21.62829916      22.31676681
C       20.98441807      22.32051520      18.49483035
C       19.68454987      17.46828981      20.94324828
C       21.54580607      18.35465602      19.30508594
C       18.02734180      21.42860323      21.16282785
C       20.57294325      21.08759354      17.67826945
C       18.79284594      17.87079548      17.14983169
C       19.30643282      22.19302008      21.54121961
C       19.21449620      20.49182662      19.03128237
C       21.94259665      20.94745709      18.36887079
C       22.44077464      20.75837437      19.85840473
C       22.20975795      22.10488593      19.24785770
C       22.09011156      21.98481829      20.82190915
C       18.67563913      19.09685793      16.26774399
C       20.87627993      19.73285514      18.61985596
C       19.77581747      20.35239987      23.45595190
C       19.67693241      18.89455271      23.26528795
C       18.94016008      20.89430791      22.29662785
C       20.87702882      19.65040913      17.11503207
C       19.11478095      17.96668285      22.22465241
C       22.11921995      20.16350196      22.77225248
C       21.07588608      19.29976119      23.35975102
C       20.03809216      18.55777062      16.69479444
C       21.17122909      22.81476763      19.99826147
60
Lattice="40.0 0.0 0.0 0.0 40.0 0.0 0.0 0.0 40.0" Properties=species:S:1:pos:R:3 energy=4.190774539906675 minima_index=9 pbc="T T T"
C       21.55387836      18.15918782      20.65659655
C       18.80898227      17.49202488      20.42129774
C       22.52287663      19.42865963      20.17539530
C       19.38315958      22.31255187      19.80430259
C       22.24819697      20.65269266      21.24098971
C       17.99229682      21.98290723      19.17150078
C       20.58270159      20.12290282      21.96772420
C       20.55354119      21.37321271      20.96811544
C       21.01022495      17.31153035      19.49086273
C       19.88451820      18.55936756      19.64289082
C       19.62776992      17.16493387      19.05138772
C       17.65185813      19.50396510      18.71806997
C       19.25675568      20.40082828      20.49335445
C       21.06212216      19.72030320      20.38484178
C       17.53023929      20.65404308      19.77377023
C       17.97065595      18.39082989      17.66467698
C       18.24008519      19.14277104      20.12301376
C       18.64389925      21.21164162      17.34949470
C       20.13056968      21.73714061      22.66608912
C       18.37152967      17.99456081      19.02150806
C       19.69179391      18.94522479      21.19739358
C       17.82999112      20.22062201      21.16991762
C       19.18959316      22.22095164      18.26583793
C       18.15694175      18.37401745      21.41903196
C       20.81398439      22.75798120      21.74809608
C       20.82274261      18.10880124      22.04625539
C       17.50114108      20.96322516      18.25583218
C       22.29718764      19.84323865      18.65972669
C       18.53524775      19.50204371      22.26581321
C       19.23415052      19.31718058      18.20683440
C       19.48720090      20.13328737      16.72899749
C       20.94970972      20.72607373      23.43451047
C       20.75606600      18.07401940      18.20290842
C       20.56821852      21.14826963      19.38278749
C       17.96476648      19.87002002      17.24252493
C       22.00149713      19.14877743      21.73656835
C       21.64490390      21.64337452      22.33222305
C       20.59622667      22.38360919      18.48541256
C       20.24539423      17.29109269      20.78586884
C       21.90763182      18.50696085      19.18990780
C       18.26668217      21.66705156      20.69935438
C       20.22993628      21.05970447      17.66353765
C       19.37369562      17.78432054      17.68428049
C       19.42373513      22.38422065      21.39803947
C       18.97013252      20.72776444      18.94570411
C       21.71305120      21.20396165      18.20890592
C       22.25150630      20.91843148      19.72261794
C       21.75879721      22.30307746      19.35675580
C       21.94390720      22.13105103      20.85548649
C       18.89623828      18.80538842      16.63609625
C       20.76225266      19.64694556      18.76761334
C       19.61553543      20.21478981      23.18483271
C       19.70156935      18.74181197      22.87556336