1004
Lattice="27.25 0.0 0.0 0.0 27.25 0.0 0.0 0.0 27.25" Properties=species:S:1:pos:R:3:move_mask:L:1:spacegroup_kinds:I:1 energy=-10122.602520608845 minima_index=95 pbc="T T T"
Si      25.20979250       0.90061250      20.11322500  F        0
Si       0.68343000       3.62397750      20.11322500  F        1
Si      25.21033750       3.62397750      22.83686250  F        2
Si       0.68261250       0.90143000      22.83768000  F        3
Si      26.57147500       2.26256750      21.47490750  F        4
Si       2.04429500       4.98538750      21.47599750  F        5
Si       2.04538500       2.26256750      24.19936250  F        6
Si      26.57229250       4.98566000      24.19854500  F        7
Si       3.40543250       0.90224750      20.11431500  F        8
Si       6.13070500       3.62152500      20.11349750  F        9
Si       3.40679500       3.62425000      22.83795250  F       10
Si       6.13070500       0.90224750      22.83931500  F       11
Si       4.76847750       2.26229500      21.47654250  F       12
Si       7.49211500       4.98239000      21.47736000  F       13
Si       7.49402250       2.26229500      24.20072500  F       14
Si       4.76902250       4.98538750      24.20045250  F       15
Si       8.85734000       0.90034000      20.11377000  F       16
Si      11.58452000       3.62043500      20.11458750  F       17
Si       8.85706750       3.62207000      22.83904250  F       18
Si      11.58397500       0.90034000      22.83849750  F       19
Si      10.22038500       2.26093250      21.47654250  F       20
Si      12.94729250       4.97966500      21.48035750  F       21
Si      12.94756500       2.26038750      24.20072500  F       22
Si      10.21902250       4.98048250      24.20508500  F       23
Si      14.31061000       0.89979500      20.11213500  F       24
Si      17.03915250       3.61852750      20.11486000  F       25
Si      14.31197250       3.62016250      22.83986000  F       26
Si      17.03751750       0.89952250      22.83768000  F       27
Si      15.67420000       2.25929750      21.47599750  F       28
Si      18.40083500       4.98375250      21.47545250  F       29
Si      18.40029000       2.26120500      24.19827250  F       30
Si      15.67447250       4.98402500      24.20045250  F       31
Si      19.76333500       0.89843250      20.11349750  F       32
Si      22.48779000       3.62261500      20.11322500  F       33
Si      19.76306250       3.62288750      22.83686250  F       34
Si      22.48642750       0.90006750      22.83686250  F       35
Si      21.12501750       2.26147750      21.47463500  F       36
Si      23.84920000       4.98538750      21.47463500  F       37
Si      23.84865500       2.26175000      24.19800000  F       38
Si      21.12529000       4.98538750      24.19772750  F       39
Si      25.21197250       6.34707000      20.11349750  F       40
Si       0.68097750       9.07288750      20.11377000  F       41
Si      25.21088250       9.07288750      22.83768000  F       42
Si       0.68343000       6.34788750      22.83740750  F       43
Si      26.57147500       7.71011500      21.47599750  F       44
Si       2.03966250      10.43429750      21.47954000  F       45
Si       2.04429500       7.70957000      24.20018000  F       46
Si      26.57093000      10.43566000      24.20045250  F       47
Si       3.40488750       6.34652500      20.11349750  F       48
Si       6.12634500       9.06934500      20.11704000  F       49
Si       3.40461500       9.07207000      22.83986000  F       50
Si       6.13070500       6.34652500      22.83931500  F       51
Si       4.76602500       7.70766250      21.47790500  F       52
Si       7.47740000      10.42966500      21.49561750  F       53
Si       7.49102500       7.70684500      24.20617500  F       54
Si       4.76221000      10.43266250      24.20862750  F       55
Si       8.85461500       6.34216500      20.11622250  F       56
Si      11.57770750       9.05190500      20.13775000  F       57
Si       8.85243500       9.06825500      22.84776250  F       58
Si      11.58424750       6.33862250      22.84749000  F       59
Si      10.21411750       7.69540000      21.49207500  F       60
Si      12.93911750      10.41876500      21.50025000  F       61
Si      12.94620250       7.70303000      24.20890000  F       62
Si      10.21548000      10.43293500      24.20971750  F       63
Si      14.31360750       6.33835000      20.12031000  F       64
Si      17.04051500       9.07016250      20.11840250  F       65
Si      14.31170000       9.06253250      22.85103250  F       66
Si      17.03860750       6.34543500      22.83904250  F       67
Si      15.67529000       7.70657250      21.47981250  F       68
Si      18.40383250      10.43511500      21.47981250  F       69
Si      18.40056250       7.70984250      24.19990750  F       70
Si      15.67583500      10.43457000      24.20454000  F       71
Si      19.76497000       6.34543500      20.11431500  F       72
Si      22.49187750       9.07125250      20.11486000  F       73
Si      19.76497000       9.07179750      22.83904250  F       74
Si      22.48751750       6.34734250      22.83686250  F       75
Si      21.12665250       7.70984250      21.47545250  F       76
Si      23.85110750      10.43647750      21.47599750  F       77
Si      23.84920000       7.71011500      24.19827250  F       78
Si      21.12665250      10.43593250      24.20045250  F       79
Si      25.21061000      11.79979500      20.11213500  F       80
Si       0.68070500      14.52752000      20.11458750  F       81
Si      25.21006500      14.52643000      22.83849750  F       82
Si       0.68016000      11.79979500      22.84013250  F       83
Si      26.57065750      13.16311250      21.47599750  F       84
Si       2.03612000      15.89192750      21.48281000  F       85
Si       2.03693750      13.16175000      24.20835500  F       86
Si      26.56875000      15.89002000      24.20236000  F       87
Si       3.39780250      11.79925000      20.12085500  F       88
Si       6.09201000      14.53896500      20.15355500  F       89
Si       3.39208000      14.53079000      22.85321250  F       90
Si       6.11871500      11.79897750      22.85321250  F       91
Si       4.74531500      13.16093250      21.49997750  F       92
Si       7.47167750      15.89955750      21.50352000  F       93
Si       7.48312250      13.16202250      24.21435000  F       94
Si       4.75921250      15.89220000      24.21217000  F       95
Si       8.83063500      11.79380000      20.14183750  F       96
Si      11.55100250      14.55940250      20.19361250  F       97
Si       8.83935500      14.53133500      22.85893500  F       98
Si      11.57634500      11.79625250      22.85130500  F       99
Si      10.19449750      13.15929750      21.50570000  F      100
Si      12.95110750      15.91618000      21.50570000  F      101
Si      12.94593000      13.16447500      24.20399500  F      102
Si      10.21575250      15.89465250      24.20917250  F      103
Si      14.32832250      11.78208250      20.18107750  F      104
Si      17.05850000      14.53297000      20.13775000  F      105
Si      14.31415250      14.53406000      22.85130500  F      106
Si      17.04787250      11.79870500      22.85103250  F      107
Si      15.69164000      13.17128750      21.50025000  F      108
Si      18.41500500      15.89628750      21.49207500  F      109
Si      18.40737500      13.16420250      24.20890000  F      110
Si      15.67747000      15.89492500      24.20971750  F      111
Si      19.77205500      11.79707000      20.12031000  F      112
Si      22.48997000      14.52588500      20.11458750  F      113
Si      19.77178250      14.52615750      22.84749000  F      114
Si      22.49024250      11.79843250      22.83986000  F      115
Si      21.13074000      13.16311250      21.48035750  F      116
Si      23.84947250      15.89002000      21.47654250  F      117
Si      23.85001750      13.16284000      24.20072500  F      118
Si      21.12992250      15.89165500      24.20508500  F      119
Si      25.21006500      17.25306500      20.11377000  F      120
Si       0.67689000      19.98297000      20.11758500  F      121
Si      25.20815750      19.97970000      22.83931500  F      122
Si       0.67770750      17.25551750      22.84258500  F      123
Si      26.56793250      18.61720000      21.47790500  F      124
Si       2.04020750      21.34465250      21.47926750  F      125
Si       2.04048000      18.61774500      24.20426750  F      126
Si      26.56984000      21.34192750      24.20099750  F      127
Si       3.39235250      17.26205750      20.12439750  F      128
Si       6.11817000      19.99223500      20.12603250  F      129
Si       3.39998250      19.98433250      22.84476500  F      130
Si       6.11626250      17.26369250      22.85730000  F      131
Si       4.75921250      18.62292250      21.48553500  F      132
Si       7.48748250      21.35146500      21.48553500  F      133
Si       7.48775500      18.62265000      24.21298750  F      134
Si       4.76575250      21.34492500      24.20508500  F      135
Si       8.82872750      17.28167750      20.15709750  F      136
Si      11.57144000      20.01839500      20.15355500  F      137
Si       8.84671250      19.99414250      22.85730000  F      138
Si      11.57934250      17.27105000      22.85893500  F      139
Si      10.21084750      18.63872750      21.50352000  F      140
Si      12.94974500      21.36509000      21.49997750  F      141
Si      12.94838250      18.62728250      24.21435000  F      142
Si      10.21820500      21.35119250      24.21217000  F      143
Si      14.31660500      17.27977000      20.14183750  F      144
Si      17.04106000      19.98433250      20.11704000  F      145
Si      14.31142750      19.99169000      22.85321250  F      146
Si      17.04215000      17.25797000      22.84776250  F      147
Si      15.68101250      18.63300500      21.49561750  F      148
Si      18.40274250      21.34465250      21.47790500  F      149
Si      18.40356000      18.61938000      24.20617500  F      150
Si      15.67774250      21.34819500      24.20862750  F      151
Si      19.76824000      17.25579000      20.11622250  F      152
Si      22.48888000      19.97997250      20.11349750  F      153
Si      19.76388000      19.97970000      22.83931500  F      154
Si      22.48833500      17.25333750      22.83904250  F      155
Si      21.12801500      18.61829000      21.47736000  F      156
Si      23.84811000      21.34220000      21.47654250  F      157
Si      23.84811000      18.61638250      24.20072500  F      158
Si      21.12501750      21.34165500      24.20045250  F      159
Si      25.20843000      22.70497250      20.11431500  F      160
Si       0.68097750      25.42942750      20.11458750  F      161
Si      25.20897500      25.42779250      22.83768000  F      162
Si       0.68016000      22.70579000      22.84040500  F      163
Si      26.57011250      24.06665500      21.47627000  F      164
Si       2.04375000      26.79056500      21.47627000  F      165
Si       2.04347750      24.06692750      24.20127000  F      166
Si      26.57147500      26.78920250      24.19909000  F      167
Si       3.40025500      22.71015000      20.11867500  F      168
Si       6.12770750      25.43378750      20.11758500  F      169
Si       3.40461500      25.43024500      22.84040500  F      170
Si       6.12607250      22.71042250      22.84476500  F      171
Si       4.76575250      24.07047000      21.47926750  F      172
Si       7.49320500      26.79247250      21.47790500  F      173
Si       7.49266000      24.06992500      24.20426750  F      174
Si       4.76875000      26.79056500      24.20099750  F      175
Si       8.84834750      22.71805250      20.12439750  F      176
Si      11.58288500      25.42970000      20.11458750  F      177
Si       8.85488750      25.43297000      22.84258500  F      178
Si      11.57961500      22.71832500      22.85321250  F      179
Si      10.21847750      24.07428500      21.48281000  F      180
Si      12.94756500      26.78974750      21.47599750  F      181
Si      12.94865500      24.07346750      24.20835500  F      182
Si      10.22065750      26.79165500      24.20236000  F      183
Si      14.31115500      22.71260250      20.12085500  F      184
Si      17.03779000      25.42970000      20.11377000  F      185
Si      14.31088250      25.43024500      22.84013250  F      186
Si      17.03833500      22.70579000      22.83986000  F      187
Si      15.67610750      24.07074250      21.47954000  F      188
Si      18.40056250      26.78893000      21.47599750  F      189
Si      18.40110750      24.06611000      24.20018000  F      190
Si      15.67501750      26.78947500      24.20045250  F      191
Si      19.76415250      22.70551750      20.11349750  F      192
Si      22.48670000      25.42724750      20.11322500  F      193
Si      19.76251750      25.42697500      22.83740750  F      194
Si      22.48615500      22.70361000      22.83795250  F      195
Si      21.12501750      24.06611000      21.47599750  F      196
Si      23.84811000      26.78893000      21.47490750  F      197
Si      23.84783750      24.06529250      24.19936250  F      198
Si      21.12474500      26.78838500      24.19854500  F      199
Si      25.21006500       0.90034000      25.56022750  F      200
Si       0.68397500       3.62425000      25.56050000  F      201
Si      25.21142750       3.62316000       1.03250250  F      202
Si       0.68397500       0.90034000       1.03413750  F      203
Si      26.57283750       2.26147750      26.92163750  F      204
Si       2.04620250       4.98538750      26.92218250  F      205
Si       2.04647500       2.26147750       2.39527500  F      206
Si      26.57420000       4.98429750       2.39391250  F      207
Si       3.40679500       0.90170250      25.56186250  F      208
Si       6.13179500       3.62397750      25.56186250  F      209
Si       3.40788500       3.62370500       1.03413750  F      210
Si       6.13179500       0.90088500       1.03522750  F      211
Si       4.76984000       2.26229500      26.92327250  F      212
Si       7.49402250       4.98429750      26.92436250  F      213
Si       7.49456750       2.26147750       2.39609250  F      214
Si       4.76984000       4.98484250       2.39582000  F      215
Si       8.85679500       0.90143000      25.56268000  F      216
Si      11.58452000       3.62070750      25.56377000  F      217
Si       8.85706750       3.62234250       1.03413750  F      218
Si      11.58370250       0.89870500       1.03359250  F      219
Si      10.22038500       2.26066000      26.92409000  F      220
Si      12.94756500       4.98239000      26.92463500  F      221
Si      12.94892750       2.25657250       2.39227750  F      222
Si      10.22065750       4.98266250       2.39418500  F      223
Si      14.31115500       0.89979500      25.56131750  F      224
Si      17.03806250       3.62207000      25.55995500  F      225
Si      14.31170000       3.61934500       1.03250250  F      226
Si      17.03806250       0.89788750       1.03168500  F      227
Si      15.67529000       2.26011500      26.92109250  F      228
Si      18.40165250       4.98375250      26.92000250  F      229
Si      18.40274250       2.25793500       2.39146000  F      230
Si      15.67747000       4.97993750       2.39064250  F      231
Si      19.76251750       0.89925000      25.55968250  F      232
Si      22.48724500       3.62343250      25.55913750  F      233
Si      19.76415250       3.62125250       1.03086750  F      234
Si      22.48724500       0.89897750       1.03250250  F      235
Si      21.12583500       2.26038750      26.92000250  F      236
Si      23.85001750       4.98457000      26.92000250  F      237
Si      23.85083500       2.25957000       2.39336750  F      238
Si      21.12883250       4.98157250       2.39064250  F      239
Si      25.21115500       6.34788750      25.55968250  F      240
Si       0.68370250       9.07288750      25.56104500  F      241
Si      25.21251750       9.07234250       1.03168500  F      242
Si       0.68479250       6.34761500       1.03332000  F      243
Si      26.57311000       7.70957000      26.92136500  F      244
Si       2.04375000      10.43484250      26.92490750  F      245
Si       2.04647500       7.70929750       2.39554750  F      246
Si      26.57420000      10.43457000       2.39336750  F      247
Si       3.40734000       6.34788750      25.56159000  F      248
Si       6.12988750       9.07179750      25.56649500  F      249
Si       3.40706750       9.07234250       1.03495500  F      250
Si       6.13152250       6.34652500       1.03468250  F      251
Si       4.76847750       7.70875250      26.92490750  F      252
Si       7.49293250      10.43511500      26.92790500  F      253
Si       7.49375000       7.70848000       2.39500250  F      254
Si       4.76847750      10.43511500       2.39609250  F      255
Si       8.85706750       6.34570750      25.56486000  F      256
Si      11.58343000       9.07070750      25.56649500  F      257
Si       8.85761250       9.07234250       1.03686250  F      258
Si      11.58452000       6.34570750       1.03495500  F      259
Si      10.22011250       7.70875250      26.92599750  F      260
Si      12.94783750      10.43593250      26.92463500  F      261
Si      12.94892750       7.70766250       2.39445750  F      262
Si      10.22174750      10.43538750       2.39691000  F      263
Si      14.31251750       6.34352750      25.56567750  F      264
Si      17.03860750       9.07179750      25.56377000  F      265
Si      14.31170000       9.07207000       1.03441000  F      266
Si      17.03942500       6.34461750       1.03141250  F      267
Si      15.67529000       7.70875250      26.92381750  F      268
Si      18.40165250      10.43511500      26.92381750  F      269
Si      18.40519500       7.70521000       2.39009750  F      270
Si      15.67638000      10.43402500       2.39500250  F      271
Si      19.76333500       6.34707000      25.55941000  F      272
Si      22.48833500       9.07234250      25.55995500  F      273
Si      19.76578750       9.07098000       1.03141250  F      274
Si      22.48915250       6.34652500       1.03086750  F      275
Si      21.12665250       7.70902500      26.92000250  F      276
Si      23.85029000      10.43511500      26.92109250  F      277
Si      23.85247000       7.70766250       2.39146000  F      278
Si      21.13074000      10.43293500       2.39064250  F      279
Si      25.21061000      11.79925000      25.56131750  F      280
Si       0.67907000      14.52779250      25.56595000  F      281
Si      25.21170000      14.52697500       1.03359250  F      282
Si       0.68288500      11.79925000       1.03359250  F      283
Si      26.57038500      13.16202250      26.92381750  F      284
Si       2.04157000      15.89002000      26.92736000  F      285
Si       2.04293250      13.16256750       2.39473000  F      286
Si      26.57147500      15.88974750       2.39582000  F      287
Si       3.40298000      11.79952250      25.56704000  F      288
Si       6.12471000      14.52888250      25.57140000  F      289
Si       3.40488750      14.52724750       1.03740750  F      290
Si       6.13125000      11.79952250       1.03795250  F      291
Si       4.76575250      13.16229500      26.92899500  F      292
Si       7.49266000      15.89056500      26.92899500  F      293
Si       7.49538500      13.16229500       2.39854500  F      294
Si       4.76820500      15.89002000       2.39745500  F      295
Si       8.85379750      11.79925000      25.56867500  F      296
Si      11.58234000      14.52806500      25.56513250  F      297
Si       8.85788500      14.52643000       1.03795250  F      298
Si      11.58479250      11.79952250       1.03631750  F      299
Si      10.22038500      13.16311250      26.92627000  F      300
Si      12.94729250      15.89002000      26.92627000  F      301
Si      12.94892750      13.16147750       2.39800000  F      302
Si      10.22174750      15.88865750       2.39909000  F      303
Si      14.31061000      11.79979500      25.56295250  F      304
Si      17.03969750      14.52697500      25.56649500  F      305
Si      14.31115500      14.52561250       1.03631750  F      306
Si      17.03833500      11.79870500       1.03441000  F      307
Si      15.67447250      13.16256750      26.92463500  F      308
Si      18.40192500      15.89029250      26.92599750  F      309
Si      18.40274250      13.16147750       2.39445750  F      310
Si      15.67501750      15.88865750       2.39691000  F      311
Si      19.76687750      11.79816000      25.56567750  F      312
Si      22.48969750      14.52615750      25.56377000  F      313
Si      19.76497000      14.52588500       1.03495500  F      314
Si      22.49106000      11.79870500       1.03250250  F      315
Si      21.12801500      13.16284000      26.92463500  F      316
Si      23.84974500      15.89002000      26.92409000  F      317
Si      23.85383250      13.16175000       2.39227750  F      318
Si      21.12801500      15.88974750       2.39418500  F      319
Si      25.20897500      17.25361000      25.56268000  F      320
Si       0.68070500      19.98024500      25.56431500  F      321
Si      25.20952000      19.97861000       1.03522750  F      322
Si       0.68179500      17.25388250       1.03659000  F      323
Si      26.57038500      18.61611000      26.92436250  F      324
Si       2.04375000      21.34192750      26.92518000  F      325
Si       2.04429500      18.61611000       2.39745500  F      326
Si      26.57174750      21.34056500       2.39663750  F      327
Si       3.40080000      17.25660750      25.56922000  F      328
Si       6.12634500      19.98406000      25.57031000  F      329
Si       3.40516000      19.98024500       1.03768000  F      330
Si       6.13016000      17.25415500       1.03795250  F      331
Si       4.76629750      18.61774500      26.92872250  F      332
Si       7.49293250      21.34438000      26.92872250  F      333
Si       7.49347750      18.61692750       2.39772750  F      334
Si       4.76847750      21.34220000       2.39772750  F      335
Si       8.85379750      17.25688000      25.56976500  F      336
Si      11.58152250      19.98569500      25.57140000  F      337
Si       8.85625000      19.98024500       1.03795250  F      338
Si      11.58397500      17.25279250       1.03795250  F      339
Si      10.21984000      18.61774500      26.92899500  F      340
Si      12.94811000      21.34465250      26.92899500  F      341
Si      12.94811000      18.61529250       2.39854500  F      342
Si      10.22038500      21.34220000       2.39745500  F      343
Si      14.31115500      17.25660750      25.56867500  F      344
Si      17.03860750      19.98051750      25.56649500  F      345
Si      14.31088250      19.97915500       1.03795250  F      346
Si      17.03806250      17.25279250       1.03686250  F      347
Si      15.67529000      18.61774500      26.92790500  F      348
Si      18.40165250      21.34220000      26.92490750  F      349
Si      18.40192500      18.61665500       2.39500250  F      350
Si      15.67529000      21.34220000       2.39609250  F      351
Si      19.76469750      17.25333750      25.56486000  F      352
Si      22.48642750      19.97861000      25.56186250  F      353
Si      19.76388000      19.97888250       1.03468250  F      354
Si      22.48806250      17.25333750       1.03413750  F      355
Si      21.12610750      18.61638250      26.92436250  F      356
Si      23.84811000      21.34056500      26.92327250  F      357
Si      23.84892750      18.61583750       2.39609250  F      358
Si      21.12556250      21.34056500       2.39582000  F      359
Si      25.20897500      22.70361000      25.56186250  F      360
Si       0.68234000      25.42806500      25.56213500  F      361
Si      25.21006500      25.42643000       1.03413750  F      362
Si       0.68261250      22.70361000       1.03577250  F      363
Si      26.57147500      24.06502000      26.92300000  F      364
Si       2.04538500      26.78893000      26.92300000  F      365
Si       2.04538500      24.06502000       2.39663750  F      366
Si      26.57283750      26.78756750       2.39527500  F      367
Si       3.40461500      22.70606250      25.56486000  F      368
Si       6.13016000      25.42997250      25.56431500  F      369
Si       3.40679500      25.42779250       1.03577250  F      370
Si       6.13016000      22.70524500       1.03768000  F      371
Si       4.76875000      24.06665500      26.92518000  F      372
Si       7.49429500      26.79002000      26.92436250  F      373
Si       7.49429500      24.06611000       2.39745500  F      374
Si       4.76984000      26.78865750       2.39663750  F      375
Si       8.85407000      22.70960500      25.56922000  F      376
Si      11.58288500      25.43160750      25.56595000  F      377
Si       8.85652250      25.42861000       1.03659000  F      378
Si      11.58343000      22.70551750       1.03740750  F      379
Si      10.22038500      24.06883500      26.92736000  F      380
Si      12.94838250      26.79002000      26.92381750  F      381
Si      12.94783750      24.06774500       2.39473000  F      382
Si      10.22065750      26.78893000       2.39582000  F      383
Si      14.31088250      22.70742500      25.56704000  F      384
Si      17.03751750      25.42670250      25.56104500  F      385
Si      14.31142750      25.42752000       1.03359250  F      386
Si      17.03806250      22.70333750       1.03495500  F      387
Si      15.67583500      24.06665500      26.92490750  F      388
Si      18.40083500      26.78729500      26.92136500  F      389
Si      18.40110750      24.06393000       2.39554750  F      390
Si      15.67583500      26.78620500       2.39336750  F      391
Si      19.76251750      22.70306500      25.56159000  F      392
Si      22.48615500      25.42670250      25.56050000  F      393
Si      19.76279000      25.42561250       1.03332000  F      394
Si      22.48670000      22.70252000       1.03413750  F      395
Si      21.12501750      24.06447500      26.92218250  F      396
Si      23.84892750      26.78784000      26.92163750  F      397
Si      23.84920000      24.06393000       2.39527500  F      398
Si      21.12610750      26.78620500       2.39391250  F      399
Si      25.21170000       0.89870500       3.75641250  F      400
Si       0.68533750       3.62288750       3.75641250  F      401
Si      25.21388000       3.62043500       6.47950500  F      402
Si       0.68506500       0.89870500       6.48114000  F      403
Si      26.57447250       2.25984250       5.11782250  F      404
Si       2.04702000       4.98429750       5.11836750  F      405
Si       2.04674750       2.26038750       7.84282250  F      406
Si      26.57610750       4.98184500       7.84118750  F      407
Si       3.40788500       0.89979500       3.75750250  F      408
Si       6.13179500       3.62261500       3.75695750  F      409
Si       3.40788500       3.62234250       6.48059500  F      410
Si       6.13097750       0.89843250       6.48032250  F      411
Si       4.76984000       2.26093250       5.11891250  F      412
Si       7.49402250       4.98320750       5.11782250  F      413
Si       7.49375000       2.25711750       7.84227750  F      414
Si       4.76902250       4.98320750       7.84282250  F      415
Si       8.85679500       0.89870500       3.75641250  F      416
Si      11.58288500       3.61525750       3.75069000  F      417
Si       8.85488750       3.61662000       6.47732500  F      418
Si      11.58370250       0.89489000       6.47841500  F      419
Si      10.22065750       2.25739000       5.11700500  F      420
Si      12.95110750       4.97094500       5.10610500  F      421
Si      12.94974500       2.25275750       7.83737250  F      422
Si      10.21902250       4.97448750       7.83601000  F      423
Si      14.31170000       0.89489000       3.75314250  F      424
Si      17.04024250       3.61716500       3.75178000  F      425
Si      14.31306250       3.60871750       6.46915000  F      426
Si      17.03997000       0.89380000       6.47732500  F      427
Si      15.67856000       2.25221250       5.11155500  F      428
Si      18.40819250       4.97585000       5.10992000  F      429
Si      18.40710250       2.25112250       7.83737250  F      430
Si      15.68700750       4.96113500       7.82320250  F      431
Si      19.76442500       0.89707000       3.75450500  F      432
Si      22.48969750       3.62070750       3.75423250  F      433
Si      19.76824000       3.61607500       6.47623500  F      434
Si      22.48997000       0.89652500       6.47950500  F      435
Si      21.12910500       2.25684500       5.11509750  F      436
Si      23.85383250       4.98130000       5.11509750  F      437
Si      23.85328750       2.25711750       7.84091500  F      438
Si      21.13482750       4.97557750       7.83628250  F      439
Si      25.21333500       6.34598000       3.75450500  F      440
Si       0.68506500       9.07207000       3.75559500  F      441
Si      25.21660500       9.07043500       6.47732500  F      442
Si       0.68533750       6.34570750       6.47950500  F      443
Si      26.57556250       7.70793500       5.11618750  F      444
Si       2.04429500      10.43538750       5.11782250  F      445
Si       2.04429500       7.70848000       7.84227750  F      446
Si      26.57420000      10.43457000       7.84227750  F      447
Si       3.40815750       6.34679750       3.75695750  F      448
Si       6.13070500       9.07070750       3.75559500  F      449
Si       3.40434250       9.07043500       6.47868750  F      450