1004
Lattice="27.25 0.0 0.0 0.0 27.25 0.0 0.0 0.0 27.25" Properties=species:S:1:pos:R:3:move_mask:L:1:spacegroup_kinds:I:1:forces:R:3 name=N0 pbc="T T T"
Si      25.20979250       0.90061250      20.11322500  F        0       0.00000000       0.00000000       0.00000000
Si       0.68343000       3.62397750      20.11322500  F        1       0.00000000       0.00000000       0.00000000
Si      25.21033750       3.62397750      22.83686250  F        2       0.00000000       0.00000000       0.00000000
Si       0.68261250       0.90143000      22.83768000  F        3       0.00000000       0.00000000       0.00000000
Si      26.57147500       2.26256750      21.47490750  F        4       0.00000000       0.00000000       0.00000000
Si       2.04429500       4.98538750      21.47599750  F        5       0.00000000       0.00000000       0.00000000
Si       2.04538500       2.26256750      24.19936250  F        6       0.00000000       0.00000000       0.00000000
Si      26.57229250       4.98566000      24.19854500  F        7       0.00000000       0.00000000       0.00000000
Si       3.40543250       0.90224750      20.11431500  F        8       0.00000000       0.00000000       0.00000000
Si       6.13070500       3.62152500      20.11349750  F        9       0.00000000       0.00000000       0.00000000
Si       3.40679500       3.62425000      22.83795250  F       10       0.00000000       0.00000000       0.00000000
Si       6.13070500       0.90224750      22.83931500  F       11       0.00000000       0.00000000       0.00000000
Si       4.76847750       2.26229500      21.47654250  F       12       0.00000000       0.00000000       0.00000000
Si       7.49211500       4.98239000      21.47736000  F       13       0.00000000       0.00000000       0.00000000
Si       7.49402250       2.26229500      24.20072500  F       14       0.00000000       0.00000000       0.00000000
Si       4.76902250       4.98538750      24.20045250  F       15       0.00000000       0.00000000       0.00000000
Si       8.85734000       0.90034000      20.11377000  F       16       0.00000000       0.00000000       0.00000000
Si      11.58452000       3.62043500      20.11458750  F       17       0.00000000       0.00000000       0.00000000
Si       8.85706750       3.62207000      22.83904250  F       18       0.00000000       0.00000000       0.00000000
Si      11.58397500       0.90034000      22.83849750  F       19       0.00000000       0.00000000       0.00000000
Si      10.22038500       2.26093250      21.47654250  F       20       0.00000000       0.00000000       0.00000000
Si      12.94729250       4.97966500      21.48035750  F       21       0.00000000       0.00000000       0.00000000
Si      12.94756500       2.26038750      24.20072500  F       22       0.00000000       0.00000000       0.00000000
Si      10.21902250       4.98048250      24.20508500  F       23       0.00000000       0.00000000       0.00000000
Si      14.31061000       0.89979500      20.11213500  F       24       0.00000000       0.00000000       0.00000000
Si      17.03915250       3.61852750      20.11486000  F       25       0.00000000       0.00000000       0.00000000
Si      14.31197250       3.62016250      22.83986000  F       26       0.00000000       0.00000000       0.00000000
Si      17.03751750       0.89952250      22.83768000  F       27       0.00000000       0.00000000       0.00000000
Si      15.67420000       2.25929750      21.47599750  F       28       0.00000000       0.00000000       0.00000000
Si      18.40083500       4.98375250      21.47545250  F       29       0.00000000       0.00000000       0.00000000
Si      18.40029000       2.26120500      24.19827250  F       30       0.00000000       0.00000000       0.00000000
Si      15.67447250       4.98402500      24.20045250  F       31       0.00000000       0.00000000       0.00000000
Si      19.76333500       0.89843250      20.11349750  F       32       0.00000000       0.00000000       0.00000000
Si      22.48779000       3.62261500      20.11322500  F       33       0.00000000       0.00000000       0.00000000
Si      19.76306250       3.62288750      22.83686250  F       34       0.00000000       0.00000000       0.00000000
Si      22.48642750       0.90006750      22.83686250  F       35       0.00000000       0.00000000       0.00000000
Si      21.12501750       2.26147750      21.47463500  F       36       0.00000000       0.00000000       0.00000000
Si      23.84920000       4.98538750      21.47463500  F       37       0.00000000       0.00000000       0.00000000
Si      23.84865500       2.26175000      24.19800000  F       38       0.00000000       0.00000000       0.00000000
Si      21.12529000       4.98538750      24.19772750  F       39       0.00000000       0.00000000       0.00000000
Si      25.21197250       6.34707000      20.11349750  F       40       0.00000000       0.00000000       0.00000000
Si       0.68097750       9.07288750      20.11377000  F       41       0.00000000       0.00000000       0.00000000
Si      25.21088250       9.07288750      22.83768000  F       42       0.00000000       0.00000000       0.00000000
Si       0.68343000       6.34788750      22.83740750  F       43       0.00000000       0.00000000       0.00000000
Si      26.57147500       7.71011500      21.47599750  F       44       0.00000000       0.00000000       0.00000000
Si       2.03966250      10.43429750      21.47954000  F       45       0.00000000       0.00000000       0.00000000
Si       2.04429500       7.70957000      24.20018000  F       46       0.00000000       0.00000000       0.00000000
Si      26.57093000      10.43566000      24.20045250  F       47       0.00000000       0.00000000       0.00000000
Si       3.40488750       6.34652500      20.11349750  F       48       0.00000000       0.00000000       0.00000000
Si       6.12634500       9.06934500      20.11704000  F       49       0.00000000       0.00000000       0.00000000
Si       3.40461500       9.07207000      22.83986000  F       50       0.00000000       0.00000000       0.00000000
Si       6.13070500       6.34652500      22.83931500  F       51       0.00000000       0.00000000       0.00000000
Si       4.76602500       7.70766250      21.47790500  F       52       0.00000000       0.00000000       0.00000000
Si       7.47740000      10.42966500      21.49561750  F       53       0.00000000       0.00000000       0.00000000
Si       7.49102500       7.70684500      24.20617500  F       54       0.00000000       0.00000000       0.00000000
Si       4.76221000      10.43266250      24.20862750  F       55       0.00000000       0.00000000       0.00000000
Si       8.85461500       6.34216500      20.11622250  F       56       0.00000000       0.00000000       0.00000000
Si      11.57770750       9.05190500      20.13775000  F       57       0.00000000       0.00000000       0.00000000
Si       8.85243500       9.06825500      22.84776250  F       58       0.00000000       0.00000000       0.00000000
Si      11.58424750       6.33862250      22.84749000  F       59       0.00000000       0.00000000       0.00000000
Si      10.21411750       7.69540000      21.49207500  F       60       0.00000000       0.00000000       0.00000000
Si      12.93911750      10.41876500      21.50025000  F       61       0.00000000       0.00000000       0.00000000
Si      12.94620250       7.70303000      24.20890000  F       62       0.00000000       0.00000000       0.00000000
Si      10.21548000      10.43293500      24.20971750  F       63       0.00000000       0.00000000       0.00000000
Si      14.31360750       6.33835000      20.12031000  F       64       0.00000000       0.00000000       0.00000000
Si      17.04051500       9.07016250      20.11840250  F       65       0.00000000       0.00000000       0.00000000
Si      14.31170000       9.06253250      22.85103250  F       66       0.00000000       0.00000000       0.00000000
Si      17.03860750       6.34543500      22.83904250  F       67       0.00000000       0.00000000       0.00000000
Si      15.67529000       7.70657250      21.47981250  F       68       0.00000000       0.00000000       0.00000000
Si      18.40383250      10.43511500      21.47981250  F       69       0.00000000       0.00000000       0.00000000
Si      18.40056250       7.70984250      24.19990750  F       70       0.00000000       0.00000000       0.00000000
Si      15.67583500      10.43457000      24.20454000  F       71       0.00000000       0.00000000       0.00000000
Si      19.76497000       6.34543500      20.11431500  F       72       0.00000000       0.00000000       0.00000000
Si      22.49187750       9.07125250      20.11486000  F       73       0.00000000       0.00000000       0.00000000
Si      19.76497000       9.07179750      22.83904250  F       74       0.00000000       0.00000000       0.00000000
Si      22.48751750       6.34734250      22.83686250  F       75       0.00000000       0.00000000       0.00000000
Si      21.12665250       7.70984250      21.47545250  F       76       0.00000000       0.00000000       0.00000000
Si      23.85110750      10.43647750      21.47599750  F       77       0.00000000       0.00000000       0.00000000
Si      23.84920000       7.71011500      24.19827250  F       78       0.00000000       0.00000000       0.00000000
Si      21.12665250      10.43593250      24.20045250  F       79       0.00000000       0.00000000       0.00000000
Si      25.21061000      11.79979500      20.11213500  F       80       0.00000000       0.00000000       0.00000000
Si       0.68070500      14.52752000      20.11458750  F       81       0.00000000       0.00000000       0.00000000
Si      25.21006500      14.52643000      22.83849750  F       82       0.00000000       0.00000000       0.00000000
Si       0.68016000      11.79979500      22.84013250  F       83       0.00000000       0.00000000       0.00000000
Si      26.57065750      13.16311250      21.47599750  F       84       0.00000000       0.00000000       0.00000000
Si       2.03612000      15.89192750      21.48281000  F       85       0.00000000       0.00000000       0.00000000
Si       2.03693750      13.16175000      24.20835500  F       86       0.00000000       0.00000000       0.00000000
Si      26.56875000      15.89002000      24.20236000  F       87       0.00000000       0.00000000       0.00000000
Si       3.39780250      11.79925000      20.12085500  F       88       0.00000000       0.00000000       0.00000000
Si       6.09201000      14.53896500      20.15355500  F       89       0.00000000       0.00000000       0.00000000
Si       3.39208000      14.53079000      22.85321250  F       90       0.00000000       0.00000000       0.00000000
Si       6.11871500      11.79897750      22.85321250  F       91       0.00000000       0.00000000       0.00000000
Si       4.74531500      13.16093250      21.49997750  F       92       0.00000000       0.00000000       0.00000000
Si       7.47167750      15.89955750      21.50352000  F       93       0.00000000       0.00000000       0.00000000
Si       7.48312250      13.16202250      24.21435000  F       94       0.00000000       0.00000000       0.00000000
Si       4.75921250      15.89220000      24.21217000  F       95       0.00000000       0.00000000       0.00000000
Si       8.83063500      11.79380000      20.14183750  F       96       0.00000000       0.00000000       0.00000000
Si      11.58147805      14.52926921      20.15942857  T       97      -0.00129011       0.00704968       0.00675927
Si       8.83935500      14.53133500      22.85893500  F       98       0.00000000       0.00000000       0.00000000
Si      11.57634500      11.79625250      22.85130500  F       99       0.00000000       0.00000000       0.00000000
Si      10.19449750      13.15929750      21.50570000  F      100       0.00000000       0.00000000       0.00000000
Si      12.94936309      15.90322894      21.50303181  T      101       0.01932293       0.00657978      -0.00188739
Si      12.94593000      13.16447500      24.20399500  F      102       0.00000000       0.00000000       0.00000000
Si      10.21575250      15.89465250      24.20917250  F      103       0.00000000       0.00000000       0.00000000
Si      14.30732101      11.79017430      20.13800528  T      104      -0.01655337       0.00139025       0.00795788
Si      17.04975248      14.52874757      20.13288615  T      105       0.02008037       0.00955094      -0.00019314
Si      14.31415250      14.53406000      22.85130500  F      106       0.00000000       0.00000000       0.00000000
Si      17.04787250      11.79870500      22.85103250  F      107       0.00000000       0.00000000       0.00000000
Si      15.67805314      13.16292872      21.49104092  T      108      -0.01225758      -0.01253317      -0.00261075
Si      18.41500500      15.89628750      21.49207500  F      109       0.00000000       0.00000000       0.00000000
Si      18.40737500      13.16420250      24.20890000  F      110       0.00000000       0.00000000       0.00000000
Si      15.67747000      15.89492500      24.20971750  F      111       0.00000000       0.00000000       0.00000000
Si      19.77205500      11.79707000      20.12031000  F      112       0.00000000       0.00000000       0.00000000
Si      22.48997000      14.52588500      20.11458750  F      113       0.00000000       0.00000000       0.00000000
Si      19.77178250      14.52615750      22.84749000  F      114       0.00000000       0.00000000       0.00000000
Si      22.49024250      11.79843250      22.83986000  F      115       0.00000000       0.00000000       0.00000000
Si      21.13074000      13.16311250      21.48035750  F      116       0.00000000       0.00000000       0.00000000
Si      23.84947250      15.89002000      21.47654250  F      117       0.00000000       0.00000000       0.00000000
Si      23.85001750      13.16284000      24.20072500  F      118       0.00000000       0.00000000       0.00000000
Si      21.12992250      15.89165500      24.20508500  F      119       0.00000000       0.00000000       0.00000000
Si      25.21006500      17.25306500      20.11377000  F      120       0.00000000       0.00000000       0.00000000
Si       0.67689000      19.98297000      20.11758500  F      121       0.00000000       0.00000000       0.00000000
Si      25.20815750      19.97970000      22.83931500  F      122       0.00000000       0.00000000       0.00000000
Si       0.67770750      17.25551750      22.84258500  F      123       0.00000000       0.00000000       0.00000000
Si      26.56793250      18.61720000      21.47790500  F      124       0.00000000       0.00000000       0.00000000
Si       2.04020750      21.34465250      21.47926750  F      125       0.00000000       0.00000000       0.00000000
Si       2.04048000      18.61774500      24.20426750  F      126       0.00000000       0.00000000       0.00000000
Si      26.56984000      21.34192750      24.20099750  F      127       0.00000000       0.00000000       0.00000000
Si       3.39235250      17.26205750      20.12439750  F      128       0.00000000       0.00000000       0.00000000
Si       6.11817000      19.99223500      20.12603250  F      129       0.00000000       0.00000000       0.00000000
Si       3.39998250      19.98433250      22.84476500  F      130       0.00000000       0.00000000       0.00000000
Si       6.11626250      17.26369250      22.85730000  F      131       0.00000000       0.00000000       0.00000000
Si       4.75921250      18.62292250      21.48553500  F      132       0.00000000       0.00000000       0.00000000
Si       7.48748250      21.35146500      21.48553500  F      133       0.00000000       0.00000000       0.00000000
Si       7.48775500      18.62265000      24.21298750  F      134       0.00000000       0.00000000       0.00000000
Si       4.76575250      21.34492500      24.20508500  F      135       0.00000000       0.00000000       0.00000000
Si       8.82872750      17.28167750      20.15709750  F      136       0.00000000       0.00000000       0.00000000
Si      11.57144000      20.01839500      20.15355500  F      137       0.00000000       0.00000000       0.00000000
Si       8.84671250      19.99414250      22.85730000  F      138       0.00000000       0.00000000       0.00000000
Si      11.57934250      17.27105000      22.85893500  F      139       0.00000000       0.00000000       0.00000000
Si      10.21084750      18.63872750      21.50352000  F      140       0.00000000       0.00000000       0.00000000
Si      12.94974500      21.36509000      21.49997750  F      141       0.00000000       0.00000000       0.00000000
Si      12.94838250      18.62728250      24.21435000  F      142       0.00000000       0.00000000       0.00000000
Si      10.21820500      21.35119250      24.21217000  F      143       0.00000000       0.00000000       0.00000000
Si      14.32259356      17.26415072      20.14209970  T      144      -0.01743301      -0.00356446      -0.01444151
Si      17.04106000      19.98433250      20.11704000  F      145       0.00000000       0.00000000       0.00000000
Si      14.31142750      19.99169000      22.85321250  F      146       0.00000000       0.00000000       0.00000000
Si      17.04215000      17.25797000      22.84776250  F      147       0.00000000       0.00000000       0.00000000
Si      15.68101250      18.63300500      21.49561750  F      148       0.00000000       0.00000000       0.00000000
Si      18.40274250      21.34465250      21.47790500  F      149       0.00000000       0.00000000       0.00000000
Si      18.40356000      18.61938000      24.20617500  F      150       0.00000000       0.00000000       0.00000000
Si      15.67774250      21.34819500      24.20862750  F      151       0.00000000       0.00000000       0.00000000
Si      19.76824000      17.25579000      20.11622250  F      152       0.00000000       0.00000000       0.00000000
Si      22.48888000      19.97997250      20.11349750  F      153       0.00000000       0.00000000       0.00000000
Si      19.76388000      19.97970000      22.83931500  F      154       0.00000000       0.00000000       0.00000000
Si      22.48833500      17.25333750      22.83904250  F      155       0.00000000       0.00000000       0.00000000
Si      21.12801500      18.61829000      21.47736000  F      156       0.00000000       0.00000000       0.00000000
Si      23.84811000      21.34220000      21.47654250  F      157       0.00000000       0.00000000       0.00000000
Si      23.84811000      18.61638250      24.20072500  F      158       0.00000000       0.00000000       0.00000000
Si      21.12501750      21.34165500      24.20045250  F      159       0.00000000       0.00000000       0.00000000
Si      25.20843000      22.70497250      20.11431500  F      160       0.00000000       0.00000000       0.00000000
Si       0.68097750      25.42942750      20.11458750  F      161       0.00000000       0.00000000       0.00000000
Si      25.20897500      25.42779250      22.83768000  F      162       0.00000000       0.00000000       0.00000000
Si       0.68016000      22.70579000      22.84040500  F      163       0.00000000       0.00000000       0.00000000
Si      26.57011250      24.06665500      21.47627000  F      164       0.00000000       0.00000000       0.00000000
Si       2.04375000      26.79056500      21.47627000  F      165       0.00000000       0.00000000       0.00000000
Si       2.04347750      24.06692750      24.20127000  F      166       0.00000000       0.00000000       0.00000000
Si      26.57147500      26.78920250      24.19909000  F      167       0.00000000       0.00000000       0.00000000
Si       3.40025500      22.71015000      20.11867500  F      168       0.00000000       0.00000000       0.00000000
Si       6.12770750      25.43378750      20.11758500  F      169       0.00000000       0.00000000       0.00000000
Si       3.40461500      25.43024500      22.84040500  F      170       0.00000000       0.00000000       0.00000000
Si       6.12607250      22.71042250      22.84476500  F      171       0.00000000       0.00000000       0.00000000
Si       4.76575250      24.07047000      21.47926750  F      172       0.00000000       0.00000000       0.00000000
Si       7.49320500      26.79247250      21.47790500  F      173       0.00000000       0.00000000       0.00000000
Si       7.49266000      24.06992500      24.20426750  F      174       0.00000000       0.00000000       0.00000000
Si       4.76875000      26.79056500      24.20099750  F      175       0.00000000       0.00000000       0.00000000
Si       8.84834750      22.71805250      20.12439750  F      176       0.00000000       0.00000000       0.00000000
Si      11.58288500      25.42970000      20.11458750  F      177       0.00000000       0.00000000       0.00000000
Si       8.85488750      25.43297000      22.84258500  F      178       0.00000000       0.00000000       0.00000000
Si      11.57961500      22.71832500      22.85321250  F      179       0.00000000       0.00000000       0.00000000
Si      10.21847750      24.07428500      21.48281000  F      180       0.00000000       0.00000000       0.00000000
Si      12.94756500      26.78974750      21.47599750  F      181       0.00000000       0.00000000       0.00000000
Si      12.94865500      24.07346750      24.20835500  F      182       0.00000000       0.00000000       0.00000000
Si      10.22065750      26.79165500      24.20236000  F      183       0.00000000       0.00000000       0.00000000
Si      14.31115500      22.71260250      20.12085500  F      184       0.00000000       0.00000000       0.00000000
Si      17.03779000      25.42970000      20.11377000  F      185       0.00000000       0.00000000       0.00000000
Si      14.31088250      25.43024500      22.84013250  F      186       0.00000000       0.00000000       0.00000000
Si      17.03833500      22.70579000      22.83986000  F      187       0.00000000       0.00000000       0.00000000
Si      15.67610750      24.07074250      21.47954000  F      188       0.00000000       0.00000000       0.00000000
Si      18.40056250      26.78893000      21.47599750  F      189       0.00000000       0.00000000       0.00000000
Si      18.40110750      24.06611000      24.20018000  F      190       0.00000000       0.00000000       0.00000000
Si      15.67501750      26.78947500      24.20045250  F      191       0.00000000       0.00000000       0.00000000
Si      19.76415250      22.70551750      20.11349750  F      192       0.00000000       0.00000000       0.00000000
Si      22.48670000      25.42724750      20.11322500  F      193       0.00000000       0.00000000       0.00000000
Si      19.76251750      25.42697500      22.83740750  F      194       0.00000000       0.00000000       0.00000000
Si      22.48615500      22.70361000      22.83795250  F      195       0.00000000       0.00000000       0.00000000
Si      21.12501750      24.06611000      21.47599750  F      196       0.00000000       0.00000000       0.00000000
Si      23.84811000      26.78893000      21.47490750  F      197       0.00000000       0.00000000       0.00000000
Si      23.84783750      24.06529250      24.19936250  F      198       0.00000000       0.00000000       0.00000000
Si      21.12474500      26.78838500      24.19854500  F      199       0.00000000       0.00000000       0.00000000
Si      25.21006500       0.90034000      25.56022750  F      200       0.00000000       0.00000000       0.00000000
Si       0.68397500       3.62425000      25.56050000  F      201       0.00000000       0.00000000       0.00000000
Si      25.21142750       3.62316000       1.03250250  F      202       0.00000000       0.00000000       0.00000000
Si       0.68397500       0.90034000       1.03413750  F      203       0.00000000       0.00000000       0.00000000
Si      26.57283750       2.26147750      26.92163750  F      204       0.00000000       0.00000000       0.00000000
Si       2.04620250       4.98538750      26.92218250  F      205       0.00000000       0.00000000       0.00000000
Si       2.04647500       2.26147750       2.39527500  F      206       0.00000000       0.00000000       0.00000000
Si      26.57420000       4.98429750       2.39391250  F      207       0.00000000       0.00000000       0.00000000
Si       3.40679500       0.90170250      25.56186250  F      208       0.00000000       0.00000000       0.00000000
Si       6.13179500       3.62397750      25.56186250  F      209       0.00000000       0.00000000       0.00000000
Si       3.40788500       3.62370500       1.03413750  F      210       0.00000000       0.00000000       0.00000000
Si       6.13179500       0.90088500       1.03522750  F      211       0.00000000       0.00000000       0.00000000
Si       4.76984000       2.26229500      26.92327250  F      212       0.00000000       0.00000000       0.00000000
Si       7.49402250       4.98429750      26.92436250  F      213       0.00000000       0.00000000       0.00000000
Si       7.49456750       2.26147750       2.39609250  F      214       0.00000000       0.00000000       0.00000000
Si       4.76984000       4.98484250       2.39582000  F      215       0.00000000       0.00000000       0.00000000
Si       8.85679500       0.90143000      25.56268000  F      216       0.00000000       0.00000000       0.00000000
Si      11.58452000       3.62070750      25.56377000  F      217       0.00000000       0.00000000       0.00000000
Si       8.85706750       3.62234250       1.03413750  F      218       0.00000000       0.00000000       0.00000000
Si      11.58370250       0.89870500       1.03359250  F      219       0.00000000       0.00000000       0.00000000
Si      10.22038500       2.26066000      26.92409000  F      220       0.00000000       0.00000000       0.00000000
Si      12.94756500       4.98239000      26.92463500  F      221       0.00000000       0.00000000       0.00000000
Si      12.94892750       2.25657250       2.39227750  F      222       0.00000000       0.00000000       0.00000000
Si      10.22065750       4.98266250       2.39418500  F      223       0.00000000       0.00000000       0.00000000
Si      14.31115500       0.89979500      25.56131750  F      224       0.00000000       0.00000000       0.00000000
Si      17.03806250       3.62207000      25.55995500  F      225       0.00000000       0.00000000       0.00000000
Si      14.31170000       3.61934500       1.03250250  F      226       0.00000000       0.00000000       0.00000000
Si      17.03806250       0.89788750       1.03168500  F      227       0.00000000       0.00000000       0.00000000
Si      15.67529000       2.26011500      26.92109250  F      228       0.00000000       0.00000000       0.00000000
Si      18.40165250       4.98375250      26.92000250  F      229       0.00000000       0.00000000       0.00000000
Si      18.40274250       2.25793500       2.39146000  F      230       0.00000000       0.00000000       0.00000000
Si      15.67747000       4.97993750       2.39064250  F      231       0.00000000       0.00000000       0.00000000
Si      19.76251750       0.89925000      25.55968250  F      232       0.00000000       0.00000000       0.00000000
Si      22.48724500       3.62343250      25.55913750  F      233       0.00000000       0.00000000       0.00000000
Si      19.76415250       3.62125250       1.03086750  F      234       0.00000000       0.00000000       0.00000000
Si      22.48724500       0.89897750       1.03250250  F      235       0.00000000       0.00000000       0.00000000
Si      21.12583500       2.26038750      26.92000250  F      236       0.00000000       0.00000000       0.00000000
Si      23.85001750       4.98457000      26.92000250  F      237       0.00000000       0.00000000       0.00000000
Si      23.85083500       2.25957000       2.39336750  F      238       0.00000000       0.00000000       0.00000000
Si      21.12883250       4.98157250       2.39064250  F      239       0.00000000       0.00000000       0.00000000
Si      25.21115500       6.34788750      25.55968250  F      240       0.00000000       0.00000000       0.00000000
Si       0.68370250       9.07288750      25.56104500  F      241       0.00000000       0.00000000       0.00000000
Si      25.21251750       9.07234250       1.03168500  F      242       0.00000000       0.00000000       0.00000000
Si       0.68479250       6.34761500       1.03332000  F      243       0.00000000       0.00000000       0.00000000
Si      26.57311000       7.70957000      26.92136500  F      244       0.00000000       0.00000000       0.00000000
Si       2.04375000      10.43484250      26.92490750  F      245       0.00000000       0.00000000       0.00000000
Si       2.04647500       7.70929750       2.39554750  F      246       0.00000000       0.00000000       0.00000000
Si      26.57420000      10.43457000       2.39336750  F      247       0.00000000       0.00000000       0.00000000
Si       3.40734000       6.34788750      25.56159000  F      248       0.00000000       0.00000000       0.00000000
Si       6.12988750       9.07179750      25.56649500  F      249       0.00000000       0.00000000       0.00000000
Si       3.40706750       9.07234250       1.03495500  F      250       0.00000000       0.00000000       0.00000000
Si       6.13152250       6.34652500       1.03468250  F      251       0.00000000       0.00000000       0.00000000
Si       4.76847750       7.70875250      26.92490750  F      252       0.00000000       0.00000000       0.00000000
Si       7.49293250      10.43511500      26.92790500  F      253       0.00000000       0.00000000       0.00000000
Si       7.49375000       7.70848000       2.39500250  F      254       0.00000000       0.00000000       0.00000000