1004
Lattice="27.25 0.0 0.0 0.0 27.25 0.0 0.0 0.0 27.25" Properties=species:S:1:pos:R:3:energies:R:1:forces:R:3 energy=-10124.032941426538 stress="0.009952115935514944 1.1734920189134538e-09 -1.4162651675071762e-10 1.1734920189134538e-09 0.007904743881360487 -6.616159251890496e-10 -1.4162651675071762e-10 -6.616159251890496e-10 0.009952115870709554" pbc="T T T"
Si      27.24995845      27.24989879      27.24978670     -10.09159833      -0.00000011       0.00000029      -0.00000040
Si       2.71767891       2.73114948       0.00112679     -10.09159555      -0.00080276      -0.00028620       0.00068802
Si       0.00129983       2.73114874       2.71750603     -10.09159554       0.00068798      -0.00028599      -0.00080265
Si       2.71625962       0.00058531       2.71608765     -10.09159051      -0.00075871       0.00084218      -0.00075910
Si       1.35836478       1.36582772       1.35819185     -10.09097255      -0.00064186      -0.00035626      -0.00064176
Si       4.07791785       4.09541259       1.36055451     -10.09110987      -0.00025248       0.00096958      -0.00030532
Si       4.07407482       1.36740346       4.07390155     -10.09115052      -0.00036575       0.00012282      -0.00036560
Si       1.36072866       4.09541206       4.07774365     -10.09110987      -0.00030583       0.00096969      -0.00025198
Si       5.43677826      27.24989953      27.24978643     -10.09155553      -0.00148306       0.00000006      -0.00000025
Si       8.16150543       2.72734469       0.00291979     -10.09132875      -0.00082050       0.00167248      -0.00013799
Si       5.43714735       2.72962295       2.71652380     -10.09136491      -0.00075511       0.00086974       0.00019828
Si       8.15897535       0.00086945       2.70880977     -10.09121849      -0.00097525      -0.00022432      -0.00003934
Si       6.79676012       1.36561577       1.35690691     -10.09117852      -0.00104542       0.00073603      -0.00011668
Si       9.52589780       4.09132866       1.35736154     -10.09181486      -0.00036454       0.00159799       0.00040860
Si       9.52222251       1.36151641       4.06439935     -10.09166437      -0.00045063       0.00058147      -0.00035100
Si       6.79871912       4.09172301       4.07492380     -10.09163526      -0.00048891       0.00096590      -0.00002336
Si      10.89059825      27.24989958      27.24978597     -10.09058071      -0.00040635       0.00000002      -0.00000008
Si      13.62495918       2.72333784      27.24978561     -10.09084345      -0.00000035       0.00087848       0.00000000
Si      10.88779371       2.71899996       2.70474648     -10.09054333       0.00020973       0.00180834       0.00091777
Si      13.62495832      27.24989884       2.70110016     -10.09054743      -0.00000005       0.00000028       0.00062425
Si      12.25721716       1.36168727       1.35099685     -10.09137993      -0.00048419       0.00072095       0.00059456
Si      14.99302462       4.08485442       1.34933005     -10.09172788       0.00038068       0.00140154       0.00037276
Si      14.99539257       1.35157563       4.05588801     -10.09114918      -0.00050264       0.00179618       0.00050427
Si      12.25813771       4.07057561       4.05732490     -10.09152098       0.00051616       0.00069585       0.00136369
Si      16.35931857      27.24989886      27.24978596     -10.09058072       0.00040622       0.00000023      -0.00000020
Si      19.08841299       2.72734317      27.24665202     -10.09132876       0.00081982       0.00167289       0.00013765
Si      16.35797334       2.71619116       2.70035623     -10.09097731       0.00093767       0.00163553       0.00079163
Si      19.09094148      27.24892796       2.70880997     -10.09121849       0.00097517       0.00022501      -0.00003947
Si      17.72726539       1.35961930       1.35021689     -10.09095859       0.00058026       0.00100743       0.00014311
Si      20.45305849       4.08901642       1.35132659     -10.09088083       0.00015803       0.00243533       0.00045075
Si      20.45832970       1.35548561       4.06576562     -10.09065611       0.00081412       0.00054225       0.00028519
Si      17.73324243       4.06552435       4.05192172     -10.08930617       0.00046790       0.00156665       0.00087623
Si      21.81313857      27.24989836      27.24978639     -10.09155554       0.00148294       0.00000041      -0.00000029
Si      24.53223958       2.73114850      27.24844589     -10.09159555       0.00080205      -0.00028585      -0.00068865
Si      21.81501790       2.72651195       2.71158317     -10.09162014       0.00057266       0.00098396      -0.00022479
Si      24.53365752      27.24921175       2.71608778     -10.09159052       0.00075859      -0.00084150      -0.00075914
Si      23.17501732       1.36331249       1.35579171     -10.09098541       0.00139114       0.00028514       0.00004582
Si      25.89243573       4.09517336       1.35730991     -10.09100120      -0.00001920      -0.00082593       0.00001852
Si      25.89395364       1.36331271       4.07472796     -10.09098541      -0.00004627       0.00028500      -0.00139172
Si      23.17897992       4.08694024       4.07076537     -10.09066455      -0.00021598       0.00103573       0.00021545
Si      27.24995963       5.46205620      27.24978601     -10.09154865      -0.00000044      -0.00097550      -0.00000021
Si       2.72203678       8.18790500       0.00315596     -10.09127815       0.00171245       0.00105444       0.00038748
Si       0.00332999       8.18790435       2.72186256     -10.09127815       0.00038708       0.00105461       0.00171292
Si       2.72124248       5.46103461       2.72106829     -10.09149124       0.00095711       0.00099449       0.00095762
Si       1.36125520       6.82429534       1.36108089     -10.09109413       0.00032254       0.00006882       0.00032302
Si       4.08758759       9.54827907       1.36414353     -10.09104564       0.00225304       0.00119729       0.00076317
Si       4.08276775       6.82345207       4.08259275     -10.09124965       0.00045301       0.00156012       0.00045378
Si       1.36431777       9.54827858       4.08741299     -10.09104564       0.00076263       0.00119746       0.00225369
Si       5.44021951       5.45863125       0.00444128     -10.09144648       0.00062512       0.00234725       0.00058181
Si       8.17122158       8.18332876       0.00416580     -10.09128914      -0.00005381       0.00182731      -0.00003072
Si       5.44854431       8.18693192       2.72649452     -10.09149119       0.00104505       0.00091602       0.00086563
Si       8.16389408       5.45455221       2.71761190     -10.09118807      -0.00033867       0.00172091       0.00049417
Si       6.80481995       6.82214184       1.36200637     -10.09132137       0.00059189       0.00230149       0.00049118
Si       9.53737940       9.54480003       1.36469759     -10.09059865       0.00054284       0.00169280      -0.00077779
Si       9.52738198       6.81377013       4.07770947     -10.09150224       0.00073890      -0.00068327       0.00056143
Si       6.81323814       9.54720092       4.09048939     -10.09025812       0.00201455      -0.00071832       0.00027903
Si      10.89315302       5.45347370       0.00289569     -10.09180991      -0.00044773       0.00184199      -0.00010678
Si      13.62496006       8.17923779      27.24978484     -10.09173755      -0.00000069       0.00175033       0.00000028
Si      10.89665564       8.17952658       2.72474479     -10.09156647      -0.00113388      -0.00050905      -0.00105452
Si      13.62185716       5.43999430       2.70338950     -10.09102567      -0.00054498       0.00047108       0.00054248
Si      12.25841953       6.81701629       1.35888231     -10.09229664       0.00065857       0.00097499      -0.00042319
Si      14.98679350       9.54085603       1.36382475     -10.09148582       0.00049732       0.00141924      -0.00087595
Si      14.99495993       6.78963151       4.05747207     -10.09112899       0.00033453      -0.00056336      -0.00002324
Si      12.25837998       9.53815186       4.09267502     -10.09164084      -0.00045184      -0.00061690      -0.00167969
Si      16.35676658       5.45347258      27.24667489     -10.09180991       0.00044666       0.00184228       0.00010700
Si      19.07869816       8.18332683      27.24540443     -10.09128915       0.00005263       0.00182794       0.00003096
Si      16.35539669       8.17347905       2.71599769     -10.09202839      -0.00056236       0.00059032      -0.00046575
Si      19.08863063       5.44790238       2.70621944     -10.09161220      -0.00019802       0.00220657       0.00062694
Si      17.72075224       6.81545705       1.35444649     -10.09173402       0.00033228       0.00199532       0.00003496
Si      20.43899495       9.54453745       1.35982464     -10.09139679      -0.00076783       0.00114069       0.00025103
Si      20.45683572       6.80544752       4.06513643     -10.09016443      -0.00102311       0.00177781       0.00145261
Si      17.71760538       9.53288490       4.08369304     -10.09287081       0.00055432      -0.00148100      -0.00128319
Si      21.80969995       5.45862943      27.24513019     -10.09144649      -0.00062624       0.00234786      -0.00058200
Si      24.52788227       8.18790382      27.24641509     -10.09127815      -0.00171331       0.00105484      -0.00038751
Si      21.80993821       8.18182783       2.71354556     -10.09119129      -0.00205466       0.00137130       0.00090336
Si      24.53399484       5.45877179       2.71575064     -10.09154047      -0.00007812       0.00072918       0.00007745
Si      23.17143852       6.82066631       1.35487461     -10.09099447      -0.00167790       0.00177111       0.00108864
Si      25.88980428       9.54789153       1.35994037     -10.09107983      -0.00173958       0.00093405       0.00173927
Si      25.89487075       6.82066678       4.07830660     -10.09099447      -0.00108924       0.00177095       0.00167734
Si      23.17140529       9.54225020       4.07833911     -10.09098081      -0.00156338      -0.00060635       0.00156305
Si      27.24995878      10.90998127      27.24978538     -10.09064913      -0.00000014       0.00043567       0.00000004
Si       2.72823545      13.62489861      27.24978537     -10.09028869       0.00157523       0.00000025       0.00000010
Si      27.24995811      13.62489809       2.72806269     -10.09028870       0.00000005       0.00000042       0.00157517
Si       2.72968745      10.90986776       2.72951332     -10.09097628       0.00122767      -0.00000434       0.00122818
Si       1.36471030      12.26711572       1.36453717     -10.09100266       0.00109816       0.00025237       0.00109826
Si       4.09196703      14.98257508       1.36370634     -10.09097988       0.00181953       0.00061170       0.00069745
Si       4.09648403      12.26631769       4.09631011     -10.09042325       0.00040578       0.00091929       0.00040622
Si       1.36387860      14.98257458       4.09179474     -10.09097988       0.00069759       0.00061193       0.00181926
Si       5.45269209      10.90795448       0.00279066     -10.09079490       0.00200731       0.00062761       0.00025250
Si       8.18167342      13.62489999      27.24978501     -10.09012577       0.00111898      -0.00000019       0.00000015
Si       5.45775827      13.62574945       2.73065226     -10.09008472       0.00157079       0.00021555       0.00021230
Si       8.18266064      10.90829712       2.73428384     -10.09058753       0.00040973       0.00013620      -0.00050801
Si       6.81957738      12.26585222       1.36644018     -10.09030271       0.00149496       0.00098284      -0.00020574
Si       9.54276682      14.98538380       1.36626612     -10.09022734       0.00080880      -0.00070073      -0.00090099
Si       9.54821243      12.26602253       4.10447234     -10.08892649       0.00086220      -0.00141324      -0.00070195
Si       6.82150443      14.98469231       4.09618866     -10.09086382       0.00097100       0.00005885      -0.00061730
Si      10.90270920      10.90385526      27.25073387     -10.09022922       0.00066930       0.00173300       0.00004916
Si      13.62495915      13.62489992      27.24978460     -10.08984678      -0.00000039      -0.00000019       0.00000038
Si      10.90604800      13.62740696       2.73559656     -10.08909582       0.00034255      -0.00015639      -0.00033945
Si      13.62484580      10.90084380       2.73296365     -10.09072459      -0.00003790       0.00056963      -0.00093829
Si      12.26458999      12.26438027       1.36765172     -10.08976703       0.00046039       0.00068233      -0.00076468
Si      14.98532818      14.98541958       1.36765188     -10.08976704      -0.00046103      -0.00068280      -0.00076479
Si      14.98424660      12.26018656       4.10446431     -10.09097105      -0.00103182       0.00063261      -0.00043242
Si      12.26567106      14.98961362       4.10446437     -10.09097105       0.00103124      -0.00063322      -0.00043250
Si      16.34721024      10.90385414      27.24883552     -10.09022923      -0.00067046       0.00173339      -0.00004853
Si      19.06824404      13.62489854      27.24978475     -10.09012578      -0.00111944       0.00000029       0.00000029
Si      16.34387006      13.62239275       2.73559659     -10.08909583      -0.00034323       0.00015586      -0.00033947
Si      19.07419537      10.90262483       2.72534392     -10.09066977      -0.00105312       0.00081671      -0.00040237
Si      17.70715069      12.26441515       1.36626610     -10.09022734      -0.00080923       0.00070055      -0.00090099
Si      20.43033995      14.98394589       1.36644041     -10.09030271      -0.00149533      -0.00098266      -0.00020573
Si      20.42841228      12.26510592       4.09618886     -10.09086381      -0.00097111      -0.00005879      -0.00061754
Si      17.70170525      14.98377718       4.10447274     -10.08892649      -0.00086280       0.00141287      -0.00070206
Si      21.79722623      10.90795272      27.24677952     -10.09079490      -0.00200800       0.00062821      -0.00025209
Si      24.52168056      13.62489773      27.24978525     -10.09028870      -0.00157495       0.00000050       0.00000011
Si      21.79215865      13.62404809       2.73065233     -10.09008473      -0.00157097      -0.00021518       0.00021228
Si      24.52834187      10.90881802       2.72140213     -10.09028481      -0.00253932       0.00000351       0.00253931
Si      23.15794907      12.26722153       1.36370629     -10.09097988      -0.00181926      -0.00061096       0.00069750
Si      25.88520572      14.98268038       1.36453737     -10.09100267      -0.00109795      -0.00025145       0.00109820
Si      25.88603745      12.26722190       4.09179462     -10.09097988      -0.00069745      -0.00061114       0.00181937
Si      23.15343262      14.98347973       4.09631061     -10.09042326      -0.00040585      -0.00091891       0.00040603
Si      27.24995709      16.33981485      27.24978568     -10.09064913       0.00000044      -0.00043478      -0.00000004
Si       2.72203356      19.06189263      27.24641569     -10.09127815       0.00171363      -0.00105395      -0.00038770
Si      27.24658654      19.06189212       2.72186306     -10.09127816      -0.00038704      -0.00105377       0.00171280
Si       2.72157427      16.34097836       2.72140239     -10.09028481       0.00253961      -0.00000265       0.00253925
Si       1.36011167      17.70190458       1.35994070     -10.09107984       0.00173981      -0.00093305       0.00173922
Si       4.07847762      20.42913028       1.35487487     -10.09099448       0.00167804      -0.00177023       0.00108861
Si       4.07851076      17.70754662       4.07833924     -10.09098082       0.00156356       0.00060699       0.00156314
Si       1.35504577      20.42912978       4.07830707     -10.09099448       0.00108924      -0.00177014       0.00167722
Si       5.45268996      16.34184430      27.24678006     -10.09079490       0.00200813      -0.00062753      -0.00025234
Si       8.17121833      19.06647103      27.24540502     -10.09128915      -0.00005270      -0.00182758       0.00003085
Si       5.43997800      19.06796905       2.71354588     -10.09119129       0.00205475      -0.00137061       0.00090335
Si       8.17572166      16.34717345       2.72534409     -10.09066977       0.00105288      -0.00081659      -0.00040237
Si       6.81092146      17.70525994       1.35982481     -10.09139680       0.00076780      -0.00114021       0.00025102
Si       9.52916451      20.43434098       1.35444670     -10.09173403      -0.00033234      -0.00199504       0.00003500
Si       9.53231138      17.71691383       4.08369320     -10.09287083      -0.00055441       0.00148106      -0.00128322
Si       6.79308044      20.44434971       4.06513658     -10.09016444       0.00102328      -0.00177725       0.00145265
Si      10.90270741      16.34594503      27.24883586     -10.09022923       0.00066995      -0.00173351      -0.00004856
Si      13.62495773      19.07056158      27.24978524     -10.09173755       0.00000009      -0.00175044       0.00000021
Si      10.89452039      19.07631955       2.71599800     -10.09202840       0.00056215      -0.00059022      -0.00046583
Si      13.62507227      16.34895602       2.73296384     -10.09072460       0.00003723      -0.00057010      -0.00093831
Si      12.26312418      17.70894328       1.36382498     -10.09148583      -0.00049781      -0.00141944      -0.00087594
Si      14.99149834      20.43278279       1.35888276     -10.09229665      -0.00065914      -0.00097498      -0.00042333
Si      14.99153774      17.71164799       4.09267548     -10.09164087       0.00045133       0.00061654      -0.00167980
Si      12.25495699      20.46016718       4.05747243     -10.09112899      -0.00033475       0.00056344      -0.00002334
Si      16.34720905      16.34594433      27.25073399     -10.09022923      -0.00067001      -0.00173331       0.00004912
Si      19.07869641      19.06647019       0.00416604     -10.09128916       0.00005326      -0.00182738      -0.00003070
Si      16.35326244      19.07027268       2.72474521     -10.09156648       0.00113317       0.00050892      -0.00105469
Si      19.06725737      16.34150183       2.73428414     -10.09058755      -0.00041041      -0.00013632      -0.00050812
Si      17.71253877      17.70499919       1.36469804     -10.09059866      -0.00054356      -0.00169302      -0.00077794
Si      20.44509799      20.42765649       1.36200702     -10.09132138      -0.00059238      -0.00230126       0.00049102
Si      20.43667951      17.70259774       4.09049024     -10.09025813      -0.00201510       0.00071826       0.00027865
Si      17.72253580      20.43602879       4.07771031     -10.09150227      -0.00073947       0.00068328       0.00056120
Si      21.79722511      16.34184324       0.00279070     -10.09079491      -0.00200766      -0.00062729       0.00025256
Si      24.52788003      19.06189214       0.00315634     -10.09127815      -0.00171256      -0.00105384       0.00038742
Si      21.80137342      19.06286603       2.72649508     -10.09149121      -0.00104557      -0.00091572       0.00086549
Si      24.52022933      16.33992905       2.72951370     -10.09097629      -0.00122781       0.00000506       0.00122803
Si      23.16232951      17.70151819       1.36414405     -10.09104565      -0.00225331      -0.00119677       0.00076302
Si      25.88866164      20.42550147       1.36108144     -10.09109414      -0.00032258      -0.00006811       0.00032290
Si      25.88559883      17.70151818       4.08741366     -10.09104565      -0.00076272      -0.00119675       0.00225340
Si      23.16714978      20.42634554       4.08259369     -10.09124966      -0.00045341      -0.00155969       0.00045346
Si      27.24995685      21.78774083      27.24978647     -10.09154865       0.00000053       0.00097623      -0.00000023
Si       2.71767692      24.51864882      27.24844622     -10.09159554      -0.00080198       0.00028656      -0.00068867
Si      27.24861727      24.51864817       2.71750636     -10.09159554      -0.00068808       0.00028674      -0.00080281
Si       2.71592158      21.79102476       2.71575101     -10.09154046       0.00007819      -0.00072829       0.00007740
Si       1.35748105      23.15462345       1.35731020     -10.09100120       0.00001917       0.00082675       0.00001850
Si       4.07489969      25.88648471       1.35579160     -10.09098541      -0.00139124      -0.00028439       0.00004588
Si       4.07093661      23.16285649       4.07076549     -10.09066456       0.00021602      -0.00103493       0.00021547
Si       1.35596366      25.88648419       4.07472800     -10.09098541       0.00004611      -0.00028430      -0.00139164
Si       5.44021610      21.79116774      27.24513077     -10.09144649       0.00062635      -0.00234718      -0.00058212
Si       8.16150343      24.52245471      27.24665234     -10.09132875      -0.00081979      -0.00167245       0.00013765
Si       5.43489864      24.52328499       2.71158330     -10.09162014      -0.00057266      -0.00098325      -0.00022484
Si       8.16128570      21.80189496       2.70621972     -10.09161221       0.00019806      -0.00220600       0.00062690
Si       6.79685800      23.16078082       1.35132668     -10.09088084      -0.00015799      -0.00243468       0.00045075
Si       9.52265155      25.89017847       1.35021673     -10.09095860      -0.00058044      -0.00100694       0.00014326
Si       9.51667395      23.18427312       4.05192181     -10.08930617      -0.00046785      -0.00156602       0.00087623
Si       6.79158709      25.89431146       4.06576536     -10.09065612      -0.00081426      -0.00054151       0.00028527
Si      10.89315022      21.79632587      27.24667538     -10.09180991      -0.00044681      -0.00184211       0.00010690
Si      13.62495777      24.52646082      27.24978590     -10.09084345       0.00000013      -0.00087836      -0.00000009
Si      10.89194318      24.53360642       2.70035633     -10.09097732      -0.00093764      -0.00163491       0.00079166
Si      13.62806003      21.80980414       2.70338986     -10.09102568       0.00054471      -0.00047083       0.00054233
Si      12.25689248      23.16494383       1.34933028     -10.09172789      -0.00038094      -0.00140116       0.00037270
Si      14.99270005      25.88811088       1.35099709     -10.09137993       0.00048388      -0.00072056       0.00059444
Si      14.99177934      23.17922258       4.05732542     -10.09152099      -0.00051642      -0.00069555       0.00136360
Si      12.25452397      25.89822190       4.05588801     -10.09114918       0.00050265      -0.00179557       0.00050431
Si      16.35676468      21.79632541       0.00289603     -10.09180992       0.00044728      -0.00184202      -0.00010679
Si      19.08841193      24.52245385       0.00291998     -10.09132876       0.00082017      -0.00167229      -0.00013795
Si      16.36212341      24.53079800       2.70474682     -10.09054335      -0.00021001      -0.00180791       0.00091764
Si      19.08602376      21.79524617       2.71761246     -10.09118809       0.00033810      -0.00172068       0.00049397
Si      17.72401999      23.15846982       1.35736208     -10.09181487       0.00036406      -0.00159770       0.00040841
Si      20.45315732      25.88418202       1.35690738     -10.09117852       0.00104506      -0.00073554      -0.00011689
Si      20.45119855      23.15807489       4.07492471     -10.09163528       0.00048848      -0.00096548      -0.00002370
Si      17.72769448      25.88828115       4.06439988     -10.09166437       0.00045044      -0.00058075      -0.00035123
Si      21.80969805      21.79116699       0.00444166     -10.09144649      -0.00062550      -0.00234700       0.00058168
Si      24.53223817      24.51864829       0.00112708     -10.09159555       0.00080256       0.00028663       0.00068793
Si      21.81277012      24.52017464       2.71652431     -10.09136492       0.00075480      -0.00086921       0.00019796
Si      24.52867488      21.78876261       2.72106889     -10.09149124      -0.00095739      -0.00099388       0.00095743
Si      23.17199975      23.15438505       1.36055514     -10.09110988       0.00025212      -0.00096911      -0.00030555
Si      25.89155257      25.88396954       1.35819212     -10.09097256       0.00064155       0.00035695      -0.00064191
Si      25.88918871      23.15438493       4.07774431     -10.09110987       0.00030552      -0.00096900      -0.00025224
Si      23.17584266      25.88239374       4.07390214     -10.09115053       0.00036539      -0.00012217      -0.00036586
Si      27.24995872      27.24989850       5.43660658     -10.09155553      -0.00000020       0.00000034      -0.00148343
Si       2.71669732       2.72962266       5.43697393     -10.09136491       0.00019794       0.00086983      -0.00075490
Si       0.00309332       2.72734384       8.16133200     -10.09132876      -0.00013821       0.00167266      -0.00082024
Si       2.70898232       0.00086936       8.15880325     -10.09121849      -0.00003932      -0.00022437      -0.00097549
Si       1.35708029       1.36561521       6.79658692     -10.09117851      -0.00011689       0.00073616      -0.00104524
Si       4.07509825       4.09172301       6.79854451     -10.09163526      -0.00002391       0.00096587      -0.00048826
Si       4.06457259       1.36151695       9.52204922     -10.09166437      -0.00035121       0.00058110      -0.00045039
Si       1.35753580       4.09132858       9.52572301     -10.09181487       0.00040804       0.00159793      -0.00036381
Si       5.43039818       0.00147851       5.43022591     -10.09132919      -0.00018193       0.00036027      -0.00018209
Si       8.15425358       2.71542716       5.42495881     -10.09023410      -0.00016613       0.00093144       0.00017065
Si       5.42513242       2.71542747       8.15408001     -10.09023411       0.00017031       0.00093130      -0.00016575
Si       8.14955193      27.25093468       8.14938003     -10.09141606       0.00000954      -0.00004502       0.00000925
Si       6.79003008       1.36139803       6.78985688     -10.09163546      -0.00013619       0.00042653      -0.00013598
Si       9.52038353       4.06312684       6.78390277     -10.09174965       0.00003513      -0.00055347       0.00063284
Si       9.51549897       1.34679938       9.51532656     -10.09171685      -0.00075921       0.00137562      -0.00075945
Si       6.78407687       4.06312739       9.52020930     -10.09174965       0.00063240      -0.00055361       0.00003563
Si      10.88670185      27.25049950       5.41865865     -10.09135514       0.00038874       0.00010308      -0.00071067
Si      13.61982848       2.69752429       5.40915649     -10.09018357       0.00034492       0.00172692       0.00094710
Si      10.87930970       2.69133206       8.14049757     -10.09021380      -0.00031639      -0.00029245      -0.00088802
Si      13.62495773      27.24989885       8.14616926     -10.09217203       0.00000024       0.00000033      -0.00186759
Si      12.25560776       1.34795123       6.77979448     -10.09180021      -0.00003322       0.00106892      -0.00096694
Si      15.00227112       4.03335251       6.75939063     -10.08863527      -0.00012613      -0.00012850       0.00140033
Si      14.99722903       1.34358833       9.51225426     -10.09209746      -0.00047149      -0.00062956      -0.00141142
Si      12.25318109       4.02524075       9.50106769     -10.09032407      -0.00125695      -0.00310243       0.00119306
Si      16.36321439      -0.00070221       5.41865878     -10.09135514      -0.00038860      -0.00010226      -0.00071068
Si      19.09524434       2.71091610       5.42127598     -10.09185219       0.00057384       0.00077729       0.00032608
Si      16.36556657       2.68945644       8.13971536     -10.09179735      -0.00012596      -0.00016005       0.00016044
Si      19.10036422      -0.00113706       8.14938008     -10.09141605      -0.00000940       0.00004566       0.00000920
Si      17.73510511       1.34632763       6.77973150     -10.09094344      -0.00051334       0.00030312      -0.00032895
Si      20.47040480       4.06014246       6.77933985     -10.08867892      -0.00071307       0.00178717       0.00071278
Si      20.47001296       1.34632772       9.51463902     -10.09094345       0.00032874       0.00030311       0.00051323
Si      17.75245144       4.02533237       9.49729259     -10.08963073       0.00048223      -0.00130099      -0.00048226
Si      21.81951882      27.24831860       5.43022616     -10.09132920       0.00018174      -0.00035954      -0.00018224
Si      24.53816228       2.72651223       5.43472740     -10.09162015       0.00022425       0.00098379      -0.00057322
Si      21.82846886       2.71091629       8.15450027     -10.09185219      -0.00032639       0.00077722      -0.00057418
Si      24.54093500      27.24892819       8.15880326     -10.09121850       0.00003903       0.00022491      -0.00097545
Si      23.18397944       1.35548582       6.79141515     -10.09065612      -0.00028565       0.00054211      -0.00081454
Si      25.89841885       4.08901705       6.79668651     -10.09088083      -0.00045133       0.00243512      -0.00015849
Si      25.89952813       1.35961979       9.52247917     -10.09095859      -0.00014354       0.00100725      -0.00058049
Si      23.19782322       4.06552467       9.51650198     -10.08930618      -0.00087668       0.00156651      -0.00046813
Si       0.00461536       5.45863019       5.44004523     -10.09144649       0.00058131       0.00234757       0.00062558
Si       2.72666930       8.18693158       5.44836923     -10.09149119       0.00086496       0.00091604       0.00104591