60
Lattice="40.0 0.0 0.0 0.0 40.0 0.0 0.0 0.0 40.0" Properties=species:S:1:pos:R:3 energy=-405.2408061027527 minima_index=1 pbc="T T T"
C       19.54094186      17.57369739      21.43036678
C       19.96791781      19.79262045      19.07361712
C       21.14540706      16.14844110      20.15497127
C       18.81744581      23.65155340      21.01611015
C       20.88208371      17.05705768      21.17605017
C       18.68882884      23.59232365      19.71793874
C       21.67502010      18.57571779      22.98755368
C       22.78410328      18.45820750      20.79018557
C       19.86969520      16.72050931      16.65714669
C       18.52539280      18.65199936      21.17646764
C       18.58457126      19.10068896      17.11301715
C       16.69838022      21.01126640      17.77686062
C       18.95146079      19.70343547      20.01585419
C       21.82902253      21.47600061      20.25065660
C       16.98253766      21.87492562      18.85860176
C       16.34669185      20.15800219      16.64893555
C       16.97389799      21.26582425      20.19274515
C       20.98770657      20.83776436      19.19563602
C       20.03472317      20.39616042      23.87642873
C       17.54513268      19.99451825      17.34450101
C       17.63418388      20.01948247      20.57700132
C       17.42719305      21.45131359      21.45651817
C       19.25981645      23.27417599      18.37462505
C       17.17869795      18.98338387      21.54594669
C       21.39259297      21.97952553      21.45519062
C       22.18828807      20.17344189      24.78517523
C       17.94696404      22.89348108      18.71467558
C       23.26877151      19.14392568      19.85004094
C       16.98026197      19.27418034      22.89197523
C       19.80046677      18.93958962      17.86964740
C       16.05883275      19.33981872      15.59650326
C       23.41534088      19.46157935      25.02621217
C       20.61209940      16.35426510      17.78726440
C       20.49565938      22.99794995      17.82154624
C       16.96405219      18.35969507      15.34164251
C       21.91217726      17.93371571      21.71787799
C       20.57551243      22.50760225      22.24897033
C       23.39377688      21.30503444      18.57775684
C       19.52033174      18.64459509      22.23816466
C       21.03568558      15.79033614      18.96976296
C       18.34431619      21.85123104      22.51207166
C       21.89471955      23.28445454      17.33576826
C       18.21231688      18.24416300      16.10692826
C       19.23026207      22.90391925      22.10450297
C       21.17478109      21.73641374      18.09076551
C       22.52379662      22.07361241      17.75787380
C       23.16796801      21.83087459      19.88997613
C       23.40991803      19.97372973      18.85316323
C       24.02790190      22.51800788      20.66241055
C       16.99729976      17.17964383      14.48873492
C       20.37987371      17.72347999      17.51222332
C       21.04492260      20.88442577      24.66440668
C       20.35746328      19.15299802      23.18263187
C       18.69048912      20.88042883      23.52444161
C       18.01057164      16.42179334      14.72905308
C       17.69320208      19.92617306      23.67967023
C       22.54955721      19.03112086      23.98707959
C       24.49161459      19.39905521      25.80461809
C       18.82085955      16.98874592      15.77820774
C       25.08649978      23.12792290      21.03533032
60
Lattice="40.0 0.0 0.0 0.0 40.0 0.0 0.0 0.0 40.0" Properties=species:S:1:pos:R:3 energy=-405.24394845962524 minima_index=2 pbc="T T T"
C       19.92245850      17.46016011      21.27889260
C       20.06876972      19.85085138      19.07702042
C       21.91310469      16.54463858      20.04837494
C       18.11770989      23.21808540      21.02222106
C       21.35861021      17.26949368      21.10427629
C       18.08274413      23.25012592      19.72094011
C       21.67470804      18.77411591      23.07284992
C       22.99436262      19.00311640      20.98960726
C       20.80999807      17.01900582      16.48560248
C       18.72484274      18.33037840      20.99854415
C       18.98698139      19.01330742      16.98408732
C       16.71134041      20.47466465      17.55817450
C       19.02587478      19.51312447      19.92333372
C       21.49748525      21.77965848      20.47437009
C       16.75070567      21.32802023      18.68208193
C       16.60445368      19.59607425      16.40850126
C       16.76980438      20.64907712      19.98447546
C       20.86025222      21.06158552      19.32665585
C       19.62968667      20.14449879      23.90942910
C       17.77562802      19.66780756      17.16604248
C       17.63282173      19.52850061      20.37153468
C       17.08330795      20.83467779      21.28999410
C       18.76248971      23.14301446      18.39648097
C       17.31442199      18.36358912      21.25202596
C       20.90712570      22.10457246      21.67403359
C       21.70449717      20.30343806      24.99659739
C       17.52904863      22.50462326      18.63448702
C       23.40993591      19.80873749      20.11429061
C       16.94624202      18.53168340      22.58388448
C       20.16470729      19.07662858      17.81214052
C       16.53847690      18.76503607      15.33115077
C       23.05165640      19.87711422      25.27630814
C       21.56627503      16.77117457      17.64076883
C       20.06789889      23.13344363      17.93981048
C       17.64813362      18.01353809      15.10758231
C       22.14068919      18.28384487      21.80012289
C       19.93279633      22.39800453      22.40977584
C       23.17317394      21.99918233      18.91586580
C       19.61920966      18.45001878      22.13592870
C       22.00332416      16.25402536      18.84356434
C       17.83373158      21.33017771      22.43625231
C       21.42160048      23.69329411      17.57764683
C       18.85541405      18.13859265      15.93331734
C       18.55608280      22.53288894      22.13602166
C       20.95466449      22.02442770      18.26224277
C       22.23968952      22.62341332      18.04859159
C       22.75877910      22.41108202      20.22331297
C       23.44765674      20.68689345      19.14868222
C       23.43335694      23.20602405      21.07406894
C       17.97420654      16.90370413      14.22635300
C       21.03299603      18.06220552      17.41388901
C       20.44743304      20.76487107      24.81735040
C       20.25354971      19.04386039      23.18342997
C       18.25425645      20.38682061      23.44608717
C       19.12229507      16.38074380      14.48521985
C       17.44453228      19.25747082      23.46761765
C       22.35811028      19.32688929      24.16773567
C       24.07406742      20.04367518      26.10956513
C       19.74612914      17.07055736      15.58584370
C       24.31569500      24.01977010      21.51494343
60
Lattice="40.0 0.0 0.0 0.0 40.0 0.0 0.0 0.0 40.0" Properties=species:S:1:pos:R:3 energy=-405.2539496421814 minima_index=3 pbc="T T T"
C       19.65912725      17.59873049      21.50455653
C       20.19979368      19.75213462      19.09216779
C       21.73318143      16.45930603      20.69290981
C       18.11636592      23.39578617      20.46231129
C       21.09384276      17.33908869      21.56235204
C       18.27431100      23.28379212      19.17329931
C       21.20994945      19.05332228      23.36755654
C       22.79322912      19.01815142      21.46828907
C       21.02972698      16.56738864      17.02057950
C       18.55994597      18.46719209      20.95911405
C       19.39376591      18.77369852      16.93319124
C       17.13555314      20.36868603      17.05911137
C       19.04668760      19.52393288      19.82879141
C       21.49749308      21.77605065      20.48243773
C       17.04238492      21.28907888      18.12566732
C       17.16821372      19.42934874      15.95560778
C       16.85443337      20.73082939      19.47031487
C       21.00320912      20.95453402      19.33413030
C       19.12523033      20.55818419      23.77038019
C       18.22025946      19.51653185      16.86773587
C       17.60798765      19.63391455      20.08358117
C       16.98645535      21.04318262      20.78198950
C       19.13849606      23.01433750      17.98209755
C       17.12807628      18.56641412      21.00216652
C       20.75290751      22.23757396      21.54490188
C       21.05811875      20.81139475      25.08061816
C       17.86004161      22.43669579      18.10006558
C       23.35780574      19.72138342      20.58671552
C       16.58753211      18.87340281      22.24735726
C       20.42488879      18.84081279      17.93889209
C       17.18762034      18.48229361      14.97648010
C       22.35860345      20.41044069      25.55397493
C       21.64944592      16.43468932      18.26808747
C       20.48760483      22.91936669      17.69963770
C       18.21108491      17.59294098      15.05525709
C       21.81977401      18.40921627      22.23085650
C       19.71154185      22.63445136      22.12579362
C       23.38700700      21.79423882      19.17289221
C       19.28276941      18.68096371      22.20328962
C       21.94258545      16.02030740      19.54838917
C       17.58342149      21.63411872      21.97011340
C       21.89542291      23.41522878      17.48653485
C       19.32580163      17.76673324      15.99634587
C       18.38430553      22.78599843      21.67277277
C       21.28326934      21.80851197      18.20979808
C       22.60370420      22.35664601      18.13004690
C       22.80935096      22.34387256      20.36375151
C       23.56024728      20.50178691      19.55991307
C       23.37603559      23.20807040      21.22547336
C       18.47117811      16.28576617      14.47652541
C       21.23413040      17.71275312      17.82196213
C       19.84545136      21.26707607      24.69720629
C       19.79649772      19.36813776      23.26044892
C       17.83234122      20.77856398      23.10435759
C       19.50279121      15.71060466      14.98685369
C       16.98737089      19.67619965      23.11373382
C       21.77387625      19.72882289      24.45940429
C       23.31620426      20.64625420      26.44615900
C       20.10002134      16.56067191      15.98526029
C       24.22152709      24.03039371      21.71979113
60
Lattice="40.0 0.0 0.0 0.0 40.0 0.0 0.0 0.0 40.0" Properties=species:S:1:pos:R:3 energy=-405.2426471710205 minima_index=4 pbc="T T T"
C       19.90433563      17.81370634      21.86251918
C       20.25997548      19.62945496      19.13815949
C       22.09767557      16.79297288      21.23308284
C       17.70623964      23.21650749      19.92647849
C       21.35808784      17.72700974      21.95508648
C       17.90514097      22.92371189      18.66979247
C       21.25416483      19.70656813      23.47318021
C       22.84489956      19.56112847      21.59382668
C       21.47412656      16.27189199      17.57340440
C       18.73027209      18.46282962      21.18762612
C       19.61259429      18.24138000      17.15761067
C       17.19938541      19.58352740      17.02489861
C       19.13127124      19.37465190      19.90498970
C       21.24562134      21.98362239      20.23273767
C       16.97825354      20.63660337      17.93875036
C       17.34982266      18.49002408      16.08121245
C       16.83215401      20.26288898      19.34907745
C       20.88343931      20.95694234      19.20283557
C       19.00489330      21.01337657      23.63247810
C       18.36410709      18.82449188      16.97883842
C       17.68249557      19.36252148      20.12746453
C       16.89717274      20.78607003      20.59662520
C       18.82479928      22.58322057      17.53986305
C       17.29752605      18.41436977      21.20961279
C       20.42912180      22.52476603      21.20251402
C       20.87705623      21.69585613      24.86768741
C       17.62888676      21.87128023      17.74137338
C       23.32587437      20.19536577      20.61729242
C       16.70297434      18.85123494      22.38899894
C       20.60871942      18.57764402      18.14571693
C       17.49637424      17.42260103      15.24605883
C       22.22503172      21.56564317      25.36095504
C       22.06333001      16.38908833      18.83831524
C       20.18258432      22.59802660      17.28629007
C       18.62114930      16.68724551      15.44573782
C       21.94698770      18.96233070      22.44991545
C       19.34511752      22.91491450      21.70991491
C       23.14974734      22.05929612      18.94973661
C       19.39817141      18.93902681      22.38846233
C       22.36906174      16.20887018      20.16956620
C       17.38689116      21.62143726      21.67862638
C       21.52408035      23.21652624      17.01432550
C       19.68129290      17.11537428      16.36907863
C       18.02522115      22.81959592      21.21234284
C       21.08271964      21.67959279      17.97690096
C       22.32921282      22.37135001      17.83353384
C       22.49046823      22.67334110      20.06210850
C       23.45420756      20.85029757      19.49538366
C       22.92974667      23.67308935      20.84894138
C       19.05348926      15.35913985      15.03699086
C       21.53511197      17.53737735      18.20127174
C       19.61842674      21.93601265      24.44142551
C       19.81441507      19.83893779      23.32107290
C       17.71127676      20.98614969      22.93415192
C       20.12893154      14.98399810      15.63646470
C       16.98371323      19.81816527      23.12469051
C       21.72689246      20.61944780      24.42928694
C       23.13665739      22.13647197      26.14240353
C       20.58863413      16.01740624      16.53018002
C       23.58996876      24.66362644      21.31213312
60
Lattice="40.0 0.0 0.0 0.0 40.0 0.0 0.0 0.0 40.0" Properties=species:S:1:pos:R:3 energy=-405.24687480926514 minima_index=5 pbc="T T T"
C       19.63089645      17.97834863      21.96174709
C       20.31267212      19.56482375      19.19681590
C       21.83245295      16.85683390      21.60723880
C       17.94298682      23.24174541      19.51299470
C       21.06400813      17.85406075      22.20437225
C       18.23632997      22.86434633      18.29997609
C       20.88001789      19.91669067      23.60325378
C       22.67056367      19.59652502      21.91610923
C       21.56382023      16.09518830      17.93608330
C       18.53929961      18.61557540      21.14427366
C       19.78133730      18.07063134      17.25876642
C       17.44201263      19.47922103      16.81683229
C       19.09915631      19.42739759      19.85148289
C       21.35139388      21.93427585      20.21858970
C       17.20887906      20.61633245      17.62031572
C       17.64048953      18.32286043      15.96063217
C       16.90257213      20.36241585      19.03041722
C       21.02858335      20.84915357      19.23835636
C       18.66989663      21.29406239      23.46600755
C       18.57241102      18.67441119      16.93749884
C       17.63517488      19.48090917      19.93877766
C       16.87256568      20.95831948      20.24714770
C       19.22193644      22.40508266      17.26737324
C       17.11023416      18.61575885      21.03214357
C       20.48249813      22.54050962      21.09669828
C       20.40590601      21.95859293      24.89570818
C       17.96905158      21.78243074      17.40580465
C       23.29616632      20.13416627      20.96213130
C       16.40695398      19.14455127      22.11100159
C       20.70497469      18.44595991      18.29984592
C       17.84096809      17.21218570      15.19703074
C       21.65248001      21.76648453      25.59149711
C       22.02302185      16.27799706      19.24870102
C       20.59619316      22.33897481      17.13017023
C       18.91182530      16.45194714      15.54313930
C       21.64955113      19.09638572      22.69625478
C       19.36386117      22.97688780      21.47116733
C       23.36489715      21.83391253      19.11737112
C       19.12070408      19.15347213      22.36115331
C       22.18079185      16.19239704      20.61598712
C       17.30774959      21.83576622      21.32290801
C       22.00130187      22.85171587      16.91910371
C       19.89865790      16.90689892      16.53346219
C       18.09509738      22.93970418      20.85287847
C       21.38040012      21.45260511      17.98300695
C       22.67351414      22.05984843      17.89749854
C       22.62263440      22.58250043      20.08628658
C       23.57601809      20.68341706      19.81143401
C       23.02455832      23.67368714      20.76649053
C       19.34142887      15.09260741      15.24785209
C       21.60194538      17.39543959      18.48919897
C       19.22408236      22.22873953      24.30043402
C       19.47281113      20.08941798      23.28312277
C       17.45106853      21.27482606      22.64446487
C       20.36160913      14.73870990      15.94855479
C       16.66368843      20.14216934      22.81402804
C       21.26424842      20.84500268      24.58543430
C       22.44121222      22.30376937      26.51823794
C       20.76771861      15.80478506      16.82877248
C       23.65071978      24.71656453      21.15596264
60
Lattice="40.0 0.0 0.0 0.0 40.0 0.0 0.0 0.0 40.0" Properties=species:S:1:pos:R:3 energy=-405.2372975349426 minima_index=6 pbc="T T T"
C       19.02171079      17.99770912      21.79935325
C       20.39381542      19.54603480      19.26499423
C       21.10758916      16.60466592      21.83701115
C       18.41773216      23.49937261      19.22860404
C       20.35737377      17.68364182      22.30052294
C       18.88402830      23.09401345      18.08016492
C       20.19117204      19.75016433      23.69387201
C       22.18462902      19.22155897      22.33497905
C       21.42864317      15.95828892      18.17638214
C       18.19511901      18.78703555      20.81762645
C       20.08815429      18.15206722      17.20411887
C       18.05044370      19.83060543      16.36862966
C       19.07125748      19.54193975      19.67867510
C       21.48093241      21.76970572      20.53074729
C       17.77564087      20.97091709      17.15461152
C       18.26490701      18.65976544      15.54167840
C       17.18958918      20.73396840      18.48060385
C       21.21745912      20.74308867      19.47459949
C       18.24188101      21.40549932      23.19748833
C       19.04902060      18.90585392      16.67097924
C       17.63794936      19.77011356      19.49058780
C       17.01143609      21.32601179      19.68792190
C       19.99432626      22.53446530      17.25276779
C       16.82298717      18.96654432      20.44269240
C       20.54601995      22.49759968      21.23533679
C       19.81896416      21.87844043      24.86854840
C       18.67697790      22.05504299      17.12205601
C       23.02567501      19.69098329      21.52207163
C       16.01154974      19.56731500      21.39779314
C       20.81679738      18.39423377      18.42509222
C       18.43785818      17.51709904      14.82175306
C       20.97988689      21.59636115      25.67467425
C       21.68871026      16.07305310      19.54443857
C       21.35194919      22.31241107      17.38264896
C       19.32242249      16.63257867      15.35338694
C       20.99486661      18.83883055      22.91642803
C       19.43580551      23.06421298      21.39729987
C       23.63190636      21.41673144      19.80719310
C       18.59384700      19.22065508      22.14684176
C       21.57958832      15.92457242      20.90880620
C       17.34552986      22.12997356      20.85538227
C       22.81095438      22.67465399      17.46605549
C       20.17954258      16.97088612      16.49975420
C       18.30259739      23.15756136      20.56226121
C       21.86153374      21.31838143      18.32382467
C       23.20716027      21.77017012      18.49790090
C       22.82947735      22.22939074      20.66973788
C       23.56147287      20.22488708      20.45911226
C       23.22689067      23.22840852      21.47879090
C       19.57021336      15.21213271      15.16124533
C       21.52353451      17.24173404      18.76038985
C       18.77005189      22.27487108      24.11662507
C       18.88982185      20.09727267      23.14848927
C       17.20161856      21.53812712      22.16483389
C       20.37211147      14.73108363      16.04314982
C       16.26335211      20.51454179      22.16891209
C       20.55156821      20.65206631      24.70767937
C       21.78229087      22.07603122      26.61981979
C       20.80048997      15.76082187      16.95213993
C       23.95916576      24.06385262      22.10991504
60
Lattice="40.0 0.0 0.0 0.0 40.0 0.0 0.0 0.0 40.0" Properties=species:S:1:pos:R:3 energy=-405.2306795120239 minima_index=7 pbc="T T T"
C       18.95831124      17.99050770      21.70602725
C       20.60588229      19.56884510      19.36655260
C       21.15884723      16.90535588      22.20001756
C       18.23523957      23.26894035      18.65476643
C       20.20407764      17.88427426      22.46408413
C       18.96308802      22.84929093      17.65629848
C       19.49271972      19.93731851      23.68117396
C       21.78375804      19.65525605      22.77591263
C       22.29250333      16.11242568      18.71024587
C       18.25388567      18.61600589      20.53101994
C       20.83486059      18.03882875      17.39754593
C       18.81626720      19.40774519      16.09053190
C       19.23744367      19.41451102      19.52884473
C       21.13012650      21.96778596      20.66485669
C       18.29082419      20.55699400      16.71597326
C       19.28156290      18.20806063      15.42511536
C       17.49610368      20.31441758      17.92523746
C       21.22353132      20.87025607      19.65020198
C       17.54066357      21.34289269      22.68580429
C       19.82741631      18.62191826      16.63956425
C       17.84727838      19.45546503      19.05882886
C       17.04042429      20.94049550      19.03526411
C       20.27142572      22.37697799      17.10880278
C       16.96043155      18.61181949      19.90675600
C       19.99566165      22.61323779      21.11492543
C       18.55874855      21.97051789      24.70192589
C       19.06617930      21.73556861      16.76471697
C       22.71028537      20.19233356      22.11073710
C       15.92613605      19.16434162      20.65841425
C       21.31121540      18.44662974      18.69554579
C       19.70718968      17.05527375      14.83804659
C       19.33313507      21.69537523      25.88212666
C       22.22935035      16.31634322      20.09404022
C       21.58966381      22.34835450      17.52332670
C       20.62387055      16.34687385      15.54670015
C       20.55496253      19.13428581      23.12502025
C       18.83632827      23.08741225      21.01728421
C       23.41622642      21.89382492      20.40876595
C       18.33193085      19.16452418      21.87660801
C       21.86722876      16.24399909      21.42191168
C       17.04135251      21.85521955      20.16243318
C       22.94412887      22.91195136      17.86961993
C       21.19546283      16.85013621      16.80462041
C       17.89637727      22.99164314      19.96472913
C       22.01040963      21.48043320      18.61545211
C       23.22686926      22.11735998      19.01961505
C       22.35200073      22.62182198      21.02691600
C       23.37391499      20.74098938      21.12922166
C       22.43075919      23.70543782      21.81787703
C       21.19025013      15.00941016      15.43468462
C       22.09697740      17.41817830      19.21459285
C       17.74658431      22.28158985      23.66461407
C       18.31994604      20.11839145      22.84568421
C       16.71853925      21.31602355      21.46510789
C       21.91199374      14.70128657      16.45442879
C       15.91312937      20.18628773      21.37124499
C       19.44706323      20.83918284      24.75588141
C       19.58657793      22.02669778      27.14491938
C       21.94633551      15.78558252      17.40134126
C       22.84654257      24.71709209      22.47749373
60
Lattice="40.0 0.0 0.0 0.0 40.0 0.0 0.0 0.0 40.0" Properties=species:S:1:pos:R:3 energy=-405.2366590499878 minima_index=8 pbc="T T T"
C       18.95452540      17.98365709      21.72927080
C       20.63172010      19.57135389      19.44548565
C       21.17644420      17.04181267      22.34068541
C       18.13501826      23.07075545      18.57858646
C       20.16418600      17.97711403      22.54402361
C       18.92165738      22.70075328      17.60737794
C       19.27156834      20.03915062      23.65313272
C       21.63236995      19.82125187      22.90183638
C       22.52351849      16.18533511      18.93134381
C       18.26519325      18.52888729      20.50245203
C       21.05262833      18.02723741      17.51406911
C       19.05850645      19.26691432      16.05187889
C       19.26511837      19.36220698      19.52801671
C       21.02426895      22.02602244      20.68624367
C       18.41377682      20.37955383      16.63750358
C       19.71171626      18.15196248      15.39096907
C       17.56640342      20.11095928      17.80810321
C       21.18873375      20.90399042      19.70951091
C       17.23972723      21.23512113      22.54082818
C       20.08046260      18.55544178      16.67503082
C       17.90757755      19.30456091      18.98706814
C       16.99732070      20.72353485      18.87592497
C       20.27210186      22.30649969      17.10106327
C       17.02318503      18.41504341      19.79588699
C       19.83417010      22.57813152      21.09284079
C       18.14452416      22.04084921      24.54737019
C       19.11527837      21.60081838      16.71685928
C       22.56301994      20.36452648      22.24721511
C       15.90296184      18.90775761      20.46131509
C       21.41803770      18.46447978      18.83825504
C       20.30881759      17.07304012      14.81027001
C       18.97685483      21.95484308      25.71500572
C       22.36846353      16.39965331      20.31225009
C       21.57701352      22.33684923      17.55455825
C       21.17852716      16.39644446      15.60455015
C       20.40412818      19.26382263      23.19347564
C       18.63213330      22.91955247      20.95520454
C       23.31511252      22.01543824      20.50954734
C       18.25037876      19.12132336      21.82542783
C       21.94221780      16.37355269      21.62589835
C       16.88710004      21.64121045      20.00232661
C       22.89851202      22.95395096      17.92806262
C       21.54455460      16.87761887      16.94300470
C       17.73950012      22.78623953      19.87038696
C       21.99339221      21.50953884      18.68219992
C       23.17364336      22.19646436      19.10799617
C       22.20881293      22.74639474      21.05100879
C       23.26366810      20.89481814      21.28049860
C       22.25706055      23.87658824      21.78068625
C       21.86344127      15.11586936      15.52405802
C       22.21385863      17.47590622      19.41265629
C       17.30695338      22.20970474      23.50074200
C       18.12441585      20.09784099      22.76362445
C       16.48990793      21.11254438      21.28374502
C       22.48709727      14.81101463      16.60941365
C       15.76575200      19.93360568      21.15769275
C       19.12795082      20.99648614      24.67451517
C       19.22760912      22.50397523      26.90059736
C       22.31123081      15.85384414      17.59105070
C       22.70617099      24.90618154      22.38939818
60
Lattice="40.0 0.0 0.0 0.0 40.0 0.0 0.0 0.0 40.0" Properties=species:S:1:pos:R:3 energy=-405.21278142929077 minima_index=9 pbc="T T T"
C       18.63061111      17.59656692      20.61658129
C       20.77125197      19.78844719      19.45591071
C       20.68122737      16.35174157      21.32257838
C       18.48655979      23.52952779      19.39323213
C       19.63637276      17.22599762      21.60372213
C       19.46812906      23.46030515      18.53792587
C       18.49083188      18.77571063      23.17262091
C       20.95530454      18.75232493      22.86902010
C       22.80207226      16.68476181      18.24725316
C       18.23574577      18.57807193      19.55687991
C       21.65825485      18.97990449      17.25797625
C       19.96990977      20.73915545      15.95413778
C       19.42074003      19.62914164      19.17667683
C       20.81836589      21.63157744      21.54892601
C       19.21310463      21.63127206      16.74650010
C       20.71299060      19.83890377      15.08865301
C       18.12209535      21.05011114      17.53893827
C       21.22143255      20.90723095      20.29655364
C       16.78281681      20.47503756      22.19173890
C       20.85998702      19.80449430      16.47483267
C       18.20645898      19.86247338      18.38902455
C       17.33640487      21.29653013      18.61605827
C       20.89986518      23.17544421      18.21417026
C       17.17077214      18.81921659      18.62694492
C       19.56507374      22.09515353      21.88276000
C       17.14154623      20.33299512      24.50547939
C       19.86213013      22.70951174      17.38538259
C       22.00047179      19.43406888      22.68822071
C       15.93558843      19.13596792      19.18537201
C       21.71805235      18.92549875      18.69744987
C       21.38325406      18.93890370      14.31612111
C       17.53062420      19.61018079      25.68566775
C       22.34706894      16.43210834      19.54691005
C       22.07060750      22.96522171      18.91716218
C       22.08121414      17.98837180      14.98770565
C       19.71444000      18.17902969      22.70144574
C       18.42498190      22.56318557      21.63163798
C       23.10098943      21.54061659      21.87141490
C       17.91342533      18.67538807      20.97120972
C       21.61924463      15.95294578      20.61270739
C       16.97876526      21.77953737      19.94042787
C       23.26498117      23.32822629      19.75182376
C       22.25846082      18.04507382      16.44416950
C       17.81206378      22.85621835      20.39142300
C       22.23337219      21.77537465      19.74585286
C       23.27940607      22.19789482      20.62466002
C       21.88930940      22.11654026      22.37496734
C       22.89744334      20.22913596      22.17114178
C       21.74884083      22.95588899      23.41770355
C       22.66250223      16.70276983      14.63271023
C       22.39515567      17.76361373      19.06593777
C       16.64884534      21.01593801      23.44385026