60
Lattice="40.0 0.0 0.0 0.0 40.0 0.0 0.0 0.0 40.0" Properties=species:S:1:pos:R:3 energy=-405.24249935150146 minima_index=1 pbc="T T T"
C       19.50522627      17.52185899      21.24699040
C       20.14305126      19.84278316      19.03718785
C       21.40863170      16.29224421      20.18482561
C       18.56796118      23.49693195      20.94338288
C       20.90543380      17.12744586      21.18018615
C       18.60669245      23.52334243      19.64115820
C       21.28440454      18.59704233      23.16186509
C       22.75170248      18.63043722      21.15920826
C       20.49926702      16.83396159      16.59307986
C       18.46714899      18.53743171      20.87623114
C       19.08123759      19.16912371      16.86405067
C       17.04124314      20.98410647      17.29629848
C       19.01476979      19.65442122      19.81929324
C       21.72886078      21.54527738      20.56379615
C       17.12556223      21.79913288      18.44811769
C       16.86876509      20.13132124      16.13153595
C       16.95708108      21.10853008      19.73504988
C       21.07678733      20.92895986      19.35933630
C       19.37380992      20.22624438      23.87080556
C       17.99191508      20.02794950      16.95337975
C       17.61319502      19.87323179      20.17354209
C       17.18723725      21.24894047      21.06317531
C       19.37097082      23.33430988      18.37269061
C       17.06002883      18.77116309      21.01390906
C       21.10497735      21.93203673      21.72731092
C       21.34206025      20.07069160      25.13384540
C       18.05152783      22.86123646      18.49966683
C       23.34812183      19.33686049      20.30266284
C       16.61101831      19.00591255      22.31140164
C       20.18996345      19.04452714      17.78131330
C       16.71085624      19.27334119      15.08476110
C       22.56866279      19.43343557      25.53188391
C       21.19606350      16.52207355      17.76931033
C       20.68539020      23.13313521      17.99851367
C       17.65828073      18.30691015      14.97452868
C       21.76802193      18.03854264      21.92182088
C       20.13868037      22.35486236      22.41260603
C       23.52558636      21.54265686      19.12576477
C       19.27719547      18.55177506      22.07899189
C       21.51649183      15.96584912      18.99017622
C       17.89626534      21.63990645      22.27417402
C       22.12297907      23.49720149      17.75231129
C       18.84069200      18.27238891      15.84721046
C       18.82205267      22.71350714      22.05247790
C       21.37475607      21.88796874      18.32636946
C       22.74172854      22.29725798      18.21353744
C       23.08362538      21.99898014      20.41291774
C       23.57663766      20.20047515      19.35015911
C       23.79141442      22.68392338      21.33071672
C       17.77681730      17.07586509      14.20901434
C       20.87672288      17.86984869      17.47636025
C       20.18394155      20.71282965      24.86258669
C       19.90987012      19.06797379      23.16536278
C       18.08237485      20.65314460      23.31136237
C       18.79116148      16.36730553      14.56405759
C       17.12093508      19.65055298      23.25079620
C       21.93064282      19.02824683      24.33125797
C       23.50485961      19.40173323      26.47533482
C       19.50654380      17.02148631      15.63227841
C       24.74209729      23.37936584      21.82805985
