60
Lattice="40.0 0.0 0.0 0.0 40.0 0.0 0.0 0.0 40.0" Properties=species:S:1:pos:R:3 energy=-405.2563433647156 minima_index=26 pbc="T T T"
C       21.85800517      18.32191037      21.43759550
C       19.49660720      19.43497268      19.43079749
C       22.64735788      17.04301097      19.44495089
C       18.23145317      23.22264490      21.31694522
C       22.70821246      18.16708739      20.26362589
C       17.32373883      22.63512377      20.58923115
C       23.58964064      20.45013048      20.75475238
C       22.88574694      19.76661376      18.48719991
C       19.37249076      15.75289315      18.12156222
C       20.56813431      18.87388348      21.96841258
C       17.73884471      17.66474770      19.22707426
C       16.12157470      19.07077757      20.97786933
C       19.56923341      19.44409795      20.81810263
C       20.53329020      21.90134320      18.68947538
C       16.57627045      20.32897168      21.43379110
C       15.59817608      17.78539383      20.54264874
C       17.73931353      20.31955879      22.33068843
C       19.65425972      20.68736982      18.68203918
C       22.33826928      21.90266148      22.51606458
C       16.83618302      18.25550486      20.10317143
C       18.98714770      19.57203175      22.15708512
C       18.72996332      21.11436044      22.80437868
C       16.89979701      21.98554615      19.30854524
C       19.83250725      18.92359960      23.19918857
C       20.84412278      22.69569243      19.77033636
C       24.27579687      22.70504971      21.46373304
C       16.55267009      21.43023693      20.55333333
C       22.23197517      20.11769819      17.46885809
C       20.42679032      19.66447589      24.21665939
C       19.02830978      18.16268497      18.81831734
C       15.15084424      16.56190780      20.14131705
C       25.45603244      22.56161921      20.65012475
C       20.71723652      16.10468336      18.29743037
C       17.40055868      21.85305408      18.02813964
C       16.01832655      15.84016170      19.38571498
C       23.22072153      19.44619074      19.78688020
C       20.63136365      23.23748988      20.88536595
C       20.42944803      21.52210286      16.42530729
C       21.84150254      19.57307000      21.92409226
C       22.00421859      16.21486722      18.77717689
C       19.75980749      22.14082891      22.77923552
C       17.76365482      22.28659674      16.63430763
C       17.29460907      16.39989354      18.92316682
C       19.53447986      23.13386456      21.76943205
C       18.60752190      21.07672619      17.77635173
C       19.01441874      21.61129104      16.51214012
C       20.89119919      22.44796185      17.41374763
C       21.25566996      20.46908661      16.67470499
C       21.54273149      23.61098614      17.22364239
C       16.09163843      14.45493511      18.94681464
C       19.73030736      17.11654594      18.22122930
C       23.20077361      22.93468230      22.24962357
C       22.68592704      20.63885459      21.87639393
C       21.07597592      21.80044266      23.26194585
C       17.21351978      14.17030226      18.38246377
C       21.03897783      20.74985985      24.17068630
C       24.51031168      21.50772639      20.69920627
C       26.56782353      23.16792748      20.24273851
C       18.06464854      15.33268055      18.35500043
C       22.08986826      24.63358654      16.68918569
