5
Lattice="27.25 0.0 0.0 0.0 27.25 0.0 0.0 0.0 27.25" Properties=species:S:1:pos:R:3:forces:R:3 name=N0 pbc="T T T"
Si      11.88427130      14.79571637      14.33020610       0.24180109      -0.25339230       0.25099280
Si      15.36497387      12.58934711      12.75084021      -0.20536954      -0.22097045       0.04669510
Si      15.69259619      14.25358696      14.07697144       0.23276507      -0.00257533      -0.68432359
Si      11.58278877      13.18330928      12.93579038      -0.28160294      -0.31180669       0.14877349
Si      13.60036987      13.30304029      14.03119187       0.00000000       0.00000000       0.00000000
5
Lattice="27.25 0.0 0.0 0.0 27.25 0.0 0.0 0.0 27.25" Properties=species:S:1:pos:R:3:forces:R:3 name=N pbc="T T T"
Si      11.88427130      14.79571637      14.33020610       0.10200163       0.27509799      -0.23426666
Si      15.36497387      12.58934711      12.75084021       0.18422818       0.08344582      -0.36969412
Si      15.69259619      14.25358696      14.07697144      -0.02710551      -0.23699703       0.14063681
Si      11.58278877      13.18330928      12.93579038      -0.27740513      -0.39123670       0.57009952
Si      13.60036987      13.30304029      14.03119187       0.01288491      -0.07336224      -0.21022998
5
Lattice="27.25 0.0 0.0 0.0 27.25 0.0 0.0 0.0 27.25" Properties=species:S:1:pos:R:3:forces:R:3 name=N pbc="T T T"
Si      12.01341561      14.87878254      14.13854068      -0.39483318      -0.15210768       0.26275832
Si      15.35905368      12.68757421      12.56843902      -0.32225187      -0.37523304       0.04150000
Si      15.69117519      14.13715486      14.13090104       0.12344717       0.21342871      -0.12013271
Si      11.44957182      12.99391216      13.26192539       0.49359948       0.23551605      -0.31190378
Si      13.60847250      13.21706339      13.96170940       0.10013292       0.08440564       0.12959052
