5
Lattice="27.25 0.0 0.0 0.0 27.25 0.0 0.0 0.0 27.25" Properties=species:S:1:pos:R:3:forces:R:3 energy=-41.25038785836291 bias_energy=0 name=N0 pbc="T T T"
Si      14.21231093      12.21068466      12.89558577      -0.04945802      -0.03845640      -0.00024490
Si      12.94286385      15.84542873      13.70955459       0.11725165      -0.54705182       0.22128936
Si      13.34729355      14.33641294      12.11292944       0.01529651       0.12191394       0.25611192
Si      14.48053365      12.05445749      15.10793065      -0.20129691       0.59862136      -0.30373098
Si      13.14199801      13.67801618      14.29899955       0.11820677      -0.13502708      -0.17342541
5
Lattice="27.25 0.0 0.0 0.0 27.25 0.0 0.0 0.0 27.25" Properties=species:S:1:pos:R:3:forces:R:3 energy=-41.250347720522534 bias_energy=-41.2501160230683 name=N pbc="T T T"
Si      14.39675360      12.53192177      12.58128188      -0.04848192      -0.13881038      -0.12696052
Si      12.62510383      15.63116520      14.23891248       0.08813849      -0.47852352       0.41039200
Si      13.21789386      14.63593000      12.32723551       0.03159384       0.18634774       0.14191917
Si      14.73175915      11.88473779      14.69563807      -0.07636060       0.61037299      -0.20347458
Si      13.15348957      13.44124523      14.28193205       0.00511018      -0.17938683      -0.22187606
5
Lattice="27.25 0.0 0.0 0.0 27.25 0.0 0.0 0.0 27.25" Properties=species:S:1:pos:R:3:forces:R:3 energy=-41.250353780616365 bias_energy=-41.250350961176565 name=N pbc="T T T"
Si      14.45801118      12.82911156      12.38212589      -0.04811961      -0.05520872      -0.17001719
Si      12.45630054      15.37085155      14.62179434       0.05621846      -0.53525728       0.40620711
Si      13.07513594      14.81003455      12.55070460       0.00877758       0.22616642       0.20433413
Si      14.93669512      11.83918476      14.32829547      -0.03911064       0.53752913      -0.22674565
Si      13.19885721      13.27581759      14.24207971       0.02223422      -0.17322956      -0.21377840
5
Lattice="27.25 0.0 0.0 0.0 27.25 0.0 0.0 0.0 27.25" Properties=species:S:1:pos:R:3:forces:R:3 energy=-41.25039165423696 bias_energy=-41.25038597356189 name=N pbc="T T T"
Si      14.46526615      13.08536454      12.25434692      -0.06398384       0.00542097      -0.17118299
Si      12.37488735      15.11337074      14.90090095       0.06346783      -0.57158592       0.37303077
Si      12.95371885      14.90881697      12.75301865      -0.00922775       0.22118245       0.25207030
Si      15.08330645      11.86155752      14.01850274      -0.02514665       0.50315540      -0.25021496
Si      13.24782120      13.15589022      14.19823073       0.03489041      -0.15817291      -0.20370312
