5
Lattice="27.25 0.0 0.0 0.0 27.25 0.0 0.0 0.0 27.25" Properties=species:S:1:pos:R:3:forces:R:3 energy=-41.25043476670289 bias_energy=0 name=N0 pbc="T T T"
Si      13.03587141      14.79253181      14.70099348       0.54602712      -0.15502875      -0.34573483
Si      15.20217747      12.59851385      12.25984717      -0.19156492       0.08865489       0.47327565
Si      15.21459684      14.15285442      13.86602488      -0.28786415      -0.07039093       0.06138513
Si      11.30853078      13.74204337      13.75040743      -0.22913642       0.06328252      -0.30891508
Si      13.36382351      12.83905656      13.54772704       0.16253836       0.07348227       0.11998913
5
Lattice="27.25 0.0 0.0 0.0 27.25 0.0 0.0 0.0 27.25" Properties=species:S:1:pos:R:3:forces:R:3 energy=-41.25031594360617 bias_energy=-41.249901714720664 name=N pbc="T T T"
Si      13.01347398      14.92247057      14.52283817       0.47347985      -0.06668131      -0.41942070
Si      15.26054899      12.38030011      12.53337892      -0.06710687      -0.08877091       0.49735049
Si      15.21158625      14.09367658      13.96772186      -0.26931322      -0.00454227       0.16839433
Si      11.31525503      13.87663494      13.50837627      -0.13772126       0.17187417      -0.40228702
Si      13.32413575      12.85191780      13.59268478       0.00066150      -0.01187967       0.15596289
5
Lattice="27.25 0.0 0.0 0.0 27.25 0.0 0.0 0.0 27.25" Properties=species:S:1:pos:R:3:forces:R:3 energy=-41.24966098773615 bias_energy=-41.249320558871844 name=N pbc="T T T"
Si      13.02316595      15.04587031      14.30883654       0.46875485      -0.04709418      -0.45068331
Si      15.27122672      12.20180476      12.79842766      -0.07794587      -0.09643446       0.52436405
Si      15.20358920      14.04559697      14.06169679      -0.26011148      -0.01085444       0.15605163
Si      11.34129611      13.96175909      13.31233336      -0.12217488       0.14131844      -0.37074257
Si      13.28572202      12.86996887      13.64370564      -0.00852262       0.01306464       0.14101019
5
Lattice="27.25 0.0 0.0 0.0 27.25 0.0 0.0 0.0 27.25" Properties=species:S:1:pos:R:3:forces:R:3 energy=-41.24889061266288 bias_energy=-41.248668930754 name=N pbc="T T T"
Si      13.05979002      15.14480477      14.09002151       0.47028272      -0.05217804      -0.46913063
Si      15.23533756      12.04737380      13.07085047      -0.09686239      -0.08967720       0.53996429
Si      15.19600997      14.01761155      14.13659206      -0.25139127      -0.01298428       0.14427987
Si      11.38757748      14.02193714      13.12268445      -0.10877830       0.12196657      -0.34394392
Si      13.24628497      12.89327274      13.70485152      -0.01325075       0.03287295       0.12883039
5
Lattice="27.25 0.0 0.0 0.0 27.25 0.0 0.0 0.0 27.25" Properties=species:S:1:pos:R:3:forces:R:3 energy=-41.24972011838005 bias_energy=-41.24967337715907 name=N pbc="T T T"
Si      13.11672265      15.22407053      13.86244571       0.47891505      -0.06941965      -0.47769913
Si      15.15976023      11.90200393      13.38791931      -0.11710871      -0.07455501       0.54873931
Si      15.18994792      13.99618661      14.17569701      -0.24722011      -0.01433263       0.13044158
Si      11.46255856      14.07120570      12.91014059      -0.09974636       0.10614007      -0.31804797
Si      13.19601064      12.93153322      13.78879737      -0.01483987       0.05216722       0.11656622
5
Lattice="27.25 0.0 0.0 0.0 27.25 0.0 0.0 0.0 27.25" Properties=species:S:1:pos:R:3:forces:R:3 energy=-41.24982089686422 bias_energy=-41.249688967366474 name=N pbc="T T T"
Si      13.20312265      15.26660856      13.64067789       0.49248606      -0.09664697      -0.47883734
Si      15.06357698      11.80541634      13.67971714      -0.13981468      -0.05180478       0.55416580
Si      15.18277064      13.97669076      14.20646334      -0.24538355      -0.01523579       0.11190181
Si      11.52733210      14.09411191      12.74958181      -0.09597954       0.09272627      -0.28859154
Si      13.14819763      12.98217244      13.84855981      -0.01130829       0.07096127       0.10136128
5
Lattice="27.25 0.0 0.0 0.0 27.25 0.0 0.0 0.0 27.25" Properties=species:S:1:pos:R:3:forces:R:3 energy=-41.249616099222735 bias_energy=-41.2493335496936 name=N pbc="T T T"
Si      13.30648593      15.27460385      13.43331830       0.49849706      -0.12312488      -0.47481321
Si      14.95012975      11.74863748      13.94476699      -0.16195393      -0.02665994       0.55812266
Si      15.17553059      13.96005561      14.22987332      -0.23927576      -0.02095142       0.09912480
Si      11.58967074      14.10248413      12.61598765      -0.09222448       0.08530926      -0.27175478
Si      13.10318300      13.03921893      13.90105374      -0.00504289       0.08542699       0.08932053
5
Lattice="27.25 0.0 0.0 0.0 27.25 0.0 0.0 0.0 27.25" Properties=species:S:1:pos:R:3:forces:R:3 energy=-41.24946131584072 bias_energy=-41.24923038138519 name=N pbc="T T T"
Si      13.42150925      15.25733696      13.22923644       0.50087023      -0.14955114      -0.46875095
Si      14.81948491      11.72298236      14.20939120      -0.18157453      -0.00035898       0.55916694
Si      15.17125911      13.93274739      14.24660698      -0.23267390      -0.02928537       0.09124260
Si      11.65419012      14.10149331      12.49223024      -0.08898073       0.08123483      -0.26032927
Si      13.05855661      13.11043997      13.94753513       0.00235893       0.09796067       0.07867068
5
Lattice="27.25 0.0 0.0 0.0 27.25 0.0 0.0 0.0 27.25" Properties=species:S:1:pos:R:3:forces:R:3 energy=-41.249424160047326 bias_energy=-41.24932301868053 name=N pbc="T T T"
Si      13.55208017      15.20698735      13.02236236       0.50398741      -0.17907450      -0.45727968
Si      14.65996980      11.73179068      14.48104252      -0.19994481       0.02818409       0.55715545
Si      15.17199918      13.89779457      14.26028662      -0.22885830      -0.03627775       0.08364500
Si      11.72638479      14.09341399      12.37315714      -0.08582903       0.07925619      -0.25096899
Si      13.01456606      13.19501341      13.98815136       0.01064473       0.10791197       0.06744822
5
Lattice="27.25 0.0 0.0 0.0 27.25 0.0 0.0 0.0 27.25" Properties=species:S:1:pos:R:3:forces:R:3 energy=-41.249426033342836 bias_energy=-41.24936205495349 name=N pbc="T T T"
Si      13.69560135      15.11824739      12.82520904       0.50496221      -0.21130097      -0.44201978
Si      14.47926445      11.78081445      14.74601572      -0.21682377       0.06013837       0.55207130
Si      15.17553482      13.85233313      14.27384816      -0.22849611      -0.04552238       0.07735291
Si      11.80057405      14.07904193      12.26226309      -0.08163061       0.08014943      -0.24302358
Si      12.97402533      13.29456310      14.01766400       0.02198827       0.11653555       0.05561916
5
Lattice="27.25 0.0 0.0 0.0 27.25 0.0 0.0 0.0 27.25" Properties=species:S:1:pos:R:3:forces:R:3 energy=-41.24940735352064 bias_energy=-41.249314936710356 name=N pbc="T T T"
Si      13.84310554      14.99541300      12.65364103       0.50318968      -0.24274459      -0.42368461
Si      14.29073342      11.86686801      14.98540675      -0.23193618       0.09405075       0.54403341
Si      15.17780448      13.79803032      14.28768370      -0.23116906      -0.05723170       0.07345949
Si      11.87294134      14.06096666      12.16355164      -0.07619252       0.08209508      -0.23775844
Si      12.94041522      13.40372202      14.03471688       0.03610808       0.12383045       0.04395015
5
Lattice="27.25 0.0 0.0 0.0 27.25 0.0 0.0 0.0 27.25" Properties=species:S:1:pos:R:3:forces:R:3 energy=-41.249585946695305 bias_energy=-41.249497823111895 name=N pbc="T T T"
Si      13.99167028      14.83982009      12.50458813       0.49863942      -0.26998257      -0.40366240
Si      14.09359009      11.99190389      15.20532482      -0.24433669       0.12740585       0.53380234
Si      15.17653615      13.72828893      14.30298445      -0.23674065      -0.07101053       0.07294627
Si      11.94965194      14.04272897      12.07128982      -0.07033000       0.08366677      -0.23571686
Si      12.91355154      13.52225812      14.04081278       0.05276791       0.12992048       0.03263064
5
Lattice="27.25 0.0 0.0 0.0 27.25 0.0 0.0 0.0 27.25" Properties=species:S:1:pos:R:3:forces:R:3 energy=-41.24966890215608 bias_energy=-41.249584137932054 name=N pbc="T T T"
Si      14.13793287      14.65002397      12.38179493       0.49095509      -0.29262089      -0.38276570
Si      13.89236411      12.15418635      15.40055595      -0.25365295       0.16055081       0.52135757
Si      15.16753740      13.64351677      14.32569129      -0.24718645      -0.08705433       0.07497498
Si      12.02850895      14.02854678      11.98574874      -0.06297920       0.08569507      -0.23594938
Si      12.89865667      13.64872614      14.03120909       0.07286350       0.13342934       0.02238253
5
Lattice="27.25 0.0 0.0 0.0 27.25 0.0 0.0 0.0 27.25" Properties=species:S:1:pos:R:3:forces:R:3 energy=-41.249702890839146 bias_energy=-41.24962769451007 name=N pbc="T T T"
Si      14.27711106      14.42606626      12.28923777       0.48096063      -0.30792922      -0.36147180
Si      13.68841219      12.35505832      15.56839295      -0.26002561       0.19271244       0.50713708
Si      15.14683387      13.54117229      14.35931689      -0.26307289      -0.10513634       0.07961232
Si      12.11392912      14.02143045      11.90295719      -0.05365821       0.08594369      -0.23867997
Si      12.89871375      13.78127268      14.00509520       0.09579608       0.13440944       0.01340238
5
Lattice="27.25 0.0 0.0 0.0 27.25 0.0 0.0 0.0 27.25" Properties=species:S:1:pos:R:3:forces:R:3 energy=-41.24989555351239 bias_energy=-41.24982824637908 name=N pbc="T T T"
Si      14.40304845      14.17270275      12.23194696       0.46973433      -0.31207491      -0.34107513
Si      13.48333668      12.59670007      15.70457278      -0.26299021       0.22319683       0.49059348
Si      15.10754466      13.41577373      14.40764424      -0.28681866      -0.12583748       0.08652445
Si      12.21232458      14.02269770      11.81974159      -0.04268673       0.08250032      -0.24320083
Si      12.91874563      13.91712575      13.96109443       0.12276126       0.13221523       0.00715803
5
Lattice="27.25 0.0 0.0 0.0 27.25 0.0 0.0 0.0 27.25" Properties=species:S:1:pos:R:3:forces:R:3 energy=-41.25026517569007 bias_energy=-41.25016404129792 name=N pbc="T T T"
Si      14.50836770      13.91004758      12.21355283       0.46015516      -0.29897896      -0.32426123
Si      13.28522492      12.87129713      15.79880029      -0.26030927       0.24864654       0.47143307
Si      15.03847317      13.26221402      14.47306266      -0.32192878      -0.14899072       0.09501838
Si      12.32769504      14.02954911      11.73713567      -0.03206705       0.07349363      -0.24693332
Si      12.96523917      14.05189217      13.90244855       0.15414994       0.12582950       0.00474310
5
Lattice="27.25 0.0 0.0 0.0 27.25 0.0 0.0 0.0 27.25" Properties=species:S:1:pos:R:3:forces:R:3 energy=-41.24895550045232 bias_energy=-41.248709491977756 name=N pbc="T T T"
Si      14.59191334      13.65686979      12.23044057       0.45739540      -0.26321733      -0.31440484
Si      13.10547718      13.15528634      15.84463127      -0.24898129       0.26270628       0.44805220
Si      14.92352218      13.08552045      14.55201734      -0.36964716      -0.17261475       0.10306189
Si      12.46206166      14.04234612      11.65903616      -0.02732774       0.05791027      -0.24660472
Si      13.04202564      14.18497730      13.83887466       0.18856080       0.11521552       0.00989547
5
Lattice="27.25 0.0 0.0 0.0 27.25 0.0 0.0 0.0 27.25" Properties=species:S:1:pos:R:3:forces:R:3 energy=-41.25015055248892 bias_energy=-41.25013311128193 name=N pbc="T T T"
Si      14.61969497      13.23559574      12.31315255       0.46679720      -0.20246670      -0.31563897
Si      12.88199406      13.53170903      15.82642723      -0.22518303       0.25477203       0.42301946
Si      14.69314210      12.87895624      14.70287973      -0.42592447      -0.18940093       0.10389893
Si      12.73107629      14.14915258      11.54175130      -0.03532517       0.03604490      -0.23890836
Si      13.19909259      14.32958641      13.74078919       0.21963547       0.10105069       0.02762895
5
Lattice="27.25 0.0 0.0 0.0 27.25 0.0 0.0 0.0 27.25" Properties=species:S:1:pos:R:3:forces:R:3 energy=-41.25038882735193 bias_energy=-41.24980804278832 name=N pbc="T T T"
Si      14.56864345      12.84507137      12.45543277       0.51133828      -0.06202862      -0.34042098
Si      12.62881454      13.90972901      15.70567124      -0.17751453       0.20398526       0.39960612
Si      14.23613383      12.61865139      14.84345463      -0.48035523      -0.17987032       0.08515546
Si      13.22140194      14.31062043      11.43993188      -0.09243664      -0.01812523      -0.20654016
Si      13.47000622      14.44092781      13.68050947       0.23896812       0.05603890       0.06219957
5
Lattice="27.25 0.0 0.0 0.0 27.25 0.0 0.0 0.0 27.25" Properties=species:S:1:pos:R:3:forces:R:3 energy=-41.240310727866785 bias_energy=-41.231340176457934 name=N pbc="T T T"
Si      14.43963390      12.67143163      12.45538716       0.58310857       0.01974341      -0.34290316
Si      12.34848138      14.06623978      15.52440784      -0.11060580       0.11915823       0.38565243
Si      13.16804909      12.25602921      14.50918745      -0.46579814      -0.11366601       0.03103070
Si      14.26577993      14.77736004      11.72047447      -0.21569558      -0.04003960      -0.18051319
Si      13.90305569      14.35393934      13.91554308       0.20899094       0.01480396       0.10673321
5
Lattice="27.25 0.0 0.0 0.0 27.25 0.0 0.0 0.0 27.25" Properties=species:S:1:pos:R:3:forces:R:3 energy=-41.20918783098126 bias_energy=-41.197496748587845 name=N pbc="T T T"
Si      14.54059082      12.85811500      12.36096899       0.63040745      -0.04653069      -0.25612480
Si      12.73079954      13.90898643      15.76564031      -0.04449418       0.04622119       0.38976320
Si      13.73934489      12.28905263      14.63391213      -0.37385699       0.01525920       0.02382951
Si      13.40127244      14.62650859      11.55973296      -0.36306018      -0.00385005      -0.26724024
Si      13.71299231      14.44233735      13.80474560       0.15100389      -0.01109965       0.10977232
