5
Lattice="27.25 0.0 0.0 0.0 27.25 0.0 0.0 0.0 27.25" Properties=species:S:1:pos:R:3:forces:R:3 energy=-41.25037251863318 bias_energy=0 name=N0 pbc="T T T"
Si      13.65884488      15.24928608      14.09354217      -0.43351513       0.26360992      -0.05514784
Si      13.94709051      11.82047323      12.19778842      -0.00622535      -0.18473555       0.02802804
Si      14.60163336      13.95446449      12.28228286      -0.16759520       0.17269150      -0.38771244
Si      12.25708711      14.14234950      15.42980619       0.47360843      -0.17907621       0.46314676
Si      13.66034414      12.95842670      14.12158036       0.13372725      -0.07248965      -0.04831451
5
Lattice="27.25 0.0 0.0 0.0 27.25 0.0 0.0 0.0 27.25" Properties=species:S:1:pos:R:3:forces:R:3 energy=-41.25006302210397 bias_energy=-41.2500603428307 name=N pbc="T T T"
Si      13.48800075      15.26413548      14.03098798      -0.43525489       0.18980931      -0.10577899
Si      13.95793139      11.80986932      12.21889837       0.00044488      -0.11469903       0.03338986
Si      14.33444271      14.01258612      12.13193194      -0.24006918       0.13068433      -0.35241435
Si      12.50154854      14.03754272      15.61540971       0.50159486      -0.20454378       0.47361467
Si      13.84307662      13.00086637      14.12777200       0.17328434      -0.00125083      -0.04881119
5
Lattice="27.25 0.0 0.0 0.0 27.25 0.0 0.0 0.0 27.25" Properties=species:S:1:pos:R:3:forces:R:3 energy=-41.2503069111884 bias_energy=-41.250282639474555 name=N pbc="T T T"
Si      13.33569641      15.24536069      14.00806528      -0.46791309       0.15750794      -0.06810901
Si      14.00003150      11.81106900      12.22329401      -0.00839149      -0.10448566       0.03238861
Si      14.03181032      14.03955406      12.03444330      -0.24329093       0.11238504      -0.32863480
Si      12.76866407      13.97562127      15.75516954       0.55284081      -0.18309817       0.43327121
Si      13.98879771      13.05339498      14.10402786       0.16675470       0.01769085      -0.06891601
5
Lattice="27.25 0.0 0.0 0.0 27.25 0.0 0.0 0.0 27.25" Properties=species:S:1:pos:R:3:forces:R:3 energy=-41.25030079603481 bias_energy=-41.25016597342768 name=N pbc="T T T"
Si      13.18648217      15.20714450      14.01976482      -0.49003248       0.12383627      -0.02920623
Si      14.02986953      11.82540566      12.21216306      -0.02198568      -0.09776922       0.03250439
Si      13.74283220      14.03207521      11.98763453      -0.23873395       0.10179172      -0.30972785
Si      13.04065942      13.94058461      15.85206122       0.59721886      -0.16365915       0.39199909
Si      14.12515669      13.11979001      14.05337637       0.15353325       0.03580038      -0.08556940
5
Lattice="27.25 0.0 0.0 0.0 27.25 0.0 0.0 0.0 27.25" Properties=species:S:1:pos:R:3:forces:R:3 energy=-41.25019576044411 bias_energy=-41.25003106911066 name=N pbc="T T T"
Si      13.03662441      15.14359636      14.06888304      -0.50268506       0.09286802       0.01604775
Si      14.05078077      11.85318142      12.17831511      -0.04098711      -0.09688341       0.03686968
Si      13.44350792      13.99631585      11.98499001      -0.22571767       0.09813882      -0.29994388
Si      13.34869087      13.93084868      15.91481069       0.63341232      -0.14597137       0.34850884
Si      14.24539603      13.20105770      13.97800116       0.13597753       0.05184794      -0.10148239
5
Lattice="27.25 0.0 0.0 0.0 27.25 0.0 0.0 0.0 27.25" Properties=species:S:1:pos:R:3:forces:R:3 energy=-41.24959137881463 bias_energy=-41.24946740686016 name=N pbc="T T T"
Si      12.89606642      15.04473670      14.17003701      -0.50335096       0.06332844       0.07204168
Si      14.04648556      11.90068345      12.12167826      -0.06854303      -0.10280919       0.04861644
Si      13.11616284      13.93502005      12.03923413      -0.20213821       0.10637169      -0.30398110
Si      13.71610644      13.94491487      15.92865018       0.66271056      -0.13166695       0.29819600
Si      14.35017874      13.29964493      13.86540043       0.11132164       0.06477601      -0.11487303
5
Lattice="27.25 0.0 0.0 0.0 27.25 0.0 0.0 0.0 27.25" Properties=species:S:1:pos:R:3:forces:R:3 energy=-41.250343798069075 bias_energy=-41.25030995067206 name=N pbc="T T T"
Si      12.82102266      14.89866071      14.40178170      -0.48048833       0.04215860       0.13651010
Si      13.95166059      12.00218351      11.98986860      -0.11185942      -0.12653843       0.07881192
Si      12.64917434      13.79904059      12.25675929      -0.15721601       0.14476507      -0.33741610
Si      14.26377197      13.96668416      15.83272749       0.67391986      -0.13186599       0.24079375
Si      14.43937044      13.45843102      13.64386292       0.07564389       0.07148076      -0.11869968
5
Lattice="27.25 0.0 0.0 0.0 27.25 0.0 0.0 0.0 27.25" Properties=species:S:1:pos:R:3:forces:R:3 energy=-41.248280510308 bias_energy=-41.24496528007338 name=N pbc="T T T"
Si      13.43443647      14.99618908      14.59399682      -0.37909836       0.08159065       0.14567811
Si      13.01106623      12.08339173      12.00386206      -0.16318892      -0.21850239       0.17587894
Si      12.44080511      14.18140014      12.53714155      -0.02341456       0.29690320      -0.49277532
Si      14.90739163      13.62433208      15.56664612       0.55249316      -0.18674178       0.21958976
Si      14.33130056      13.23968697      13.42335345       0.01320868       0.02675032      -0.04837149
5
Lattice="27.25 0.0 0.0 0.0 27.25 0.0 0.0 0.0 27.25" Properties=species:S:1:pos:R:3:forces:R:3 energy=-41.238242235428864 bias_energy=-41.23036060916369 name=N pbc="T T T"
Si      13.17399567      15.03796462      14.43425072      -0.53113184       0.04081758       0.04189872
Si      13.31592633      11.87028411      12.15080421       0.01869570      -0.25760091       0.19768361
Si      12.57564971      13.98331919      12.31489056       0.03192493       0.16560237      -0.58711163
Si      14.67970129      13.94541849      15.67613883       0.35929355       0.01600211       0.29599377
Si      14.37972701      13.28801358      13.54891568       0.12121766       0.03517884       0.05153553
5
Lattice="27.25 0.0 0.0 0.0 27.25 0.0 0.0 0.0 27.25" Properties=species:S:1:pos:R:3:forces:R:3 energy=-41.162656152307186 bias_energy=-41.13728066425348 name=N pbc="T T T"
Si      13.03728400      14.92180579      14.53009454      -0.50357654       0.04120694       0.15390888
Si      13.27725059      11.85020534      12.22368483      -0.06693751      -0.18087839       0.20100976
Si      12.66789192      14.03106341      12.18558394       0.02577122       0.20940494      -0.55833384
Si      14.73034252      13.99021275      15.65765449       0.44976417      -0.13482153       0.22969195
Si      14.41223098      13.33171270      13.52798220       0.09497866       0.06508805      -0.02627675
5
Lattice="27.25 0.0 0.0 0.0 27.25 0.0 0.0 0.0 27.25" Properties=species:S:1:pos:R:3:forces:R:3 energy=-41.05620471433268 bias_energy=-41.000192547792516 name=N pbc="T T T"
Si      13.02601016      14.91587573      14.63261690      -0.34757507       0.11683877       0.11698648
Si      13.24506647      11.84660294      12.26490616      -0.06173130      -0.13561235       0.13888976
Si      12.71063016      14.01352741      12.00970814      -0.10015754       0.13836446      -0.63881871
Si      14.75587645      13.96195062      15.69508185       0.43241295      -0.16500218       0.38840882
Si      14.38741676      13.38704329      13.52268695       0.07705096       0.04541130      -0.00546636
5
Lattice="27.25 0.0 0.0 0.0 27.25 0.0 0.0 0.0 27.25" Properties=species:S:1:pos:R:3:forces:R:3 energy=-40.939184420258954 bias_energy=-40.81512287396539 name=N pbc="T T T"
Si      13.00495377      14.89521502      14.69026428      -0.35222812       0.11325212       0.06506772
Si      13.20671761      11.85343835      12.28621483      -0.07643711      -0.11522150       0.10672704
Si      12.77180488      14.01537630      11.89330834      -0.11158278       0.11777831      -0.61016289
Si      14.76577740      13.94272835      15.73370130       0.44523718      -0.15620880       0.44319876
Si      14.37574634      13.41824199      13.52151126       0.09501083       0.04039986      -0.00483062
5
Lattice="27.25 0.0 0.0 0.0 27.25 0.0 0.0 0.0 27.25" Properties=species:S:1:pos:R:3:forces:R:3 energy=-40.81008344029344 bias_energy=-40.62496159751415 name=N pbc="T T T"
Si      12.98533231      14.85852757      14.72359558      -0.35344144       0.11689055       0.00571233
Si      13.16794690      11.87446736      12.29601987      -0.07121496      -0.10263692       0.08027050
Si      12.81745654      14.03074657      11.80880466      -0.14422382       0.11054930      -0.56249648
Si      14.77651146      13.92125285      15.77624679       0.46265800      -0.15864144       0.48798622
Si      14.37775279      13.44000565      13.52033310       0.10622223       0.03383851      -0.01147257
5
Lattice="27.25 0.0 0.0 0.0 27.25 0.0 0.0 0.0 27.25" Properties=species:S:1:pos:R:3:forces:R:3 energy=-40.85401480994471 bias_energy=-40.729223350285444 name=N pbc="T T T"
Si      12.74216845      14.60072009      15.43006488      -0.34505566       0.13373151      -0.02518553
Si      13.22813921      12.03525674      12.17148585      -0.05697190      -0.09510228       0.06043828
Si      13.57101380      14.02492300      11.25911921      -0.17393246       0.10010349      -0.53295869
Si      14.80848383      13.75974728      15.68350954       0.47263241      -0.16534172       0.50981029
Si      13.77519471      13.70435289      13.58082052       0.10332762       0.02660900      -0.01210435
5
Lattice="27.25 0.0 0.0 0.0 27.25 0.0 0.0 0.0 27.25" Properties=species:S:1:pos:R:3:forces:R:3 energy=-40.717297727792406 bias_energy=-40.633558161850935 name=N pbc="T T T"
Si      12.86521258      14.77591805      15.28869928      -0.26008725       0.23367650      -0.08686442
Si      13.32516170      11.95180270      12.22204068       0.02353832      -0.12406339      -0.02835579
Si      13.22663526      13.93576119      11.30006478      -0.30430310       0.07840643      -0.46654313
Si      14.76521319      13.74203834      15.76788188       0.30086162      -0.13622260       0.60589540
Si      13.94277728      13.71947972      13.54631338       0.23999041      -0.05179695      -0.02413205
5
Lattice="27.25 0.0 0.0 0.0 27.25 0.0 0.0 0.0 27.25" Properties=species:S:1:pos:R:3:forces:R:3 energy=-40.590049647681106 bias_energy=-40.46413517273411 name=N pbc="T T T"
Si      12.91147605      14.86787886      15.15631502      -0.24717578       0.16457572      -0.05748091
Si      13.39557630      11.89674440      12.23583843      -0.02383915      -0.09776945      -0.05895973
Si      13.02885951      13.86173789      11.34333694      -0.27884015       0.05041159      -0.49040849
Si      14.71463537      13.79631757      15.86640116       0.32221295      -0.06845106       0.64052918
Si      14.07445277      13.70232127      13.52310844       0.22764213      -0.04876680      -0.03368005
5
Lattice="27.25 0.0 0.0 0.0 27.25 0.0 0.0 0.0 27.25" Properties=species:S:1:pos:R:3:forces:R:3 energy=-40.50883916700391 bias_energy=-40.26485688685307 name=N pbc="T T T"
Si      12.91865951      14.85433614      15.16022119      -0.25013681       0.11429959      -0.02391028
Si      13.38365763      11.90037361      12.22672932      -0.07033064      -0.08256125      -0.06360251
Si      13.01851144      13.85805595      11.31245712      -0.22080314       0.06315253      -0.52399308
Si      14.72816558      13.81514602      15.90683140       0.39548545      -0.03656885       0.63079594
Si      14.07600584      13.69708829      13.51876096       0.14578514      -0.05832201      -0.01929006
5
Lattice="27.25 0.0 0.0 0.0 27.25 0.0 0.0 0.0 27.25" Properties=species:S:1:pos:R:3:forces:R:3 energy=-40.29423741405342 bias_energy=-40.114632966846735 name=N pbc="T T T"
Si      12.93696369      14.72987432      15.25965518      -0.23730630       0.11881673      -0.01811134
Si      13.17364231      11.95513501      12.21562487      -0.06707825      -0.07599552      -0.06554206
Si      13.08733583      13.89747661      11.19595503      -0.22371348       0.06222193      -0.52976471
Si      14.88505669      13.86735269      15.93336140       0.39443382      -0.04512332       0.63296680
Si      14.04200147      13.67516136      13.52040353       0.13366422      -0.05991982      -0.01954870
5
Lattice="27.25 0.0 0.0 0.0 27.25 0.0 0.0 0.0 27.25" Properties=species:S:1:pos:R:3:forces:R:3 energy=-40.25269923469685 bias_energy=-39.91657505922028 name=N pbc="T T T"
Si      12.95397022      14.75696106      15.26165747      -0.20726625       0.19904294      -0.03015085
Si      13.18122556      11.95575591      12.20906638      -0.00667503      -0.07016578      -0.06506169
Si      13.07261888      13.89780362      11.18490668      -0.26808664       0.04925653      -0.52682769
Si      14.87738663      13.84163767      15.94999287       0.34424981      -0.12180183       0.63234699
Si      14.03979871      13.67284174      13.51937660       0.13777811      -0.05633186      -0.01030675
5
Lattice="27.25 0.0 0.0 0.0 27.25 0.0 0.0 0.0 27.25" Properties=species:S:1:pos:R:3:forces:R:3 energy=-39.99713306575865 bias_energy=-39.77425575939353 name=N pbc="T T T"
Si      13.05883533      14.88331832      15.26199370      -0.21995918       0.18352967      -0.02413509
Si      13.25747494      11.96594781      12.17109474      -0.00825139      -0.06893862      -0.06522199
Si      12.95884891      13.87333096      11.12677354      -0.26464005       0.05039019      -0.53056124
Si      14.82347765      13.71591609      16.03830679       0.35662274      -0.10585806       0.62746536
Si      14.02636318      13.68648681      13.52683122       0.13622788      -0.05912318      -0.00754704
5
Lattice="27.25 0.0 0.0 0.0 27.25 0.0 0.0 0.0 27.25" Properties=species:S:1:pos:R:3:forces:R:3 energy=-39.976733864653426 bias_energy=-39.57513309158824 name=N pbc="T T T"
Si      13.04618311      14.87040965      15.26358045      -0.28640642       0.11023821      -0.00497918
Si      13.26190529      11.96317316      12.16829476      -0.02917622      -0.05544018      -0.06918208
Si      12.94912887      13.87500660      11.12814236      -0.23009409       0.05253883      -0.53441319
Si      14.83790985      13.73401538      16.03846536       0.42441646      -0.03129334       0.59498062
Si      14.02987289      13.68239522      13.52651707       0.12126026      -0.07604352       0.01359383
