5
Lattice="27.25 0.0 0.0 0.0 27.25 0.0 0.0 0.0 27.25" Properties=species:S:1:pos:R:3:forces:R:3 energy=-43.721429757378715 bias_energy=0 name=N0 pbc="T T T"
Si      12.86378312      15.02533107      14.70610080      -0.00114941      -0.05277677       0.14991861
Si      14.38686861      12.22234249      12.54861781      -0.65493338       0.15586645       0.45286034
Si      12.76270271      12.67782400      14.24717609       0.07716513       0.00518992      -0.28602686
Si      14.90829664      13.89669107      14.17959635       0.31136290      -0.00956924      -0.16533017
Si      13.20334892      14.30281137      12.44350896       0.26755476      -0.09871035      -0.15142192
5
Lattice="27.25 0.0 0.0 0.0 27.25 0.0 0.0 0.0 27.25" Properties=species:S:1:pos:R:3:forces:R:3 energy=-43.72153226505669 bias_energy=-43.72073127813233 name=N pbc="T T T"
Si      13.16728638      15.16783316      14.68292691       0.11509645      -0.07989315       0.14325905
Si      14.08624454      12.08310653      12.56692024      -0.69662885      -0.11473020       0.37411904
Si      12.62035476      12.86640926      14.29478585      -0.05895140       0.11932625      -0.16585036
Si      14.95166725      13.66494504      14.14293303       0.29993936       0.00246024      -0.21560897
Si      13.29944707      14.34270601      12.43743397       0.34054444       0.07283687      -0.13591877
