5
Lattice="27.25 0.0 0.0 0.0 27.25 0.0 0.0 0.0 27.25" Properties=species:S:1:pos:R:3:forces:R:3 energy=-43.72146413308636 bias_energy=0 name=N0 pbc="T T T"
Si      13.54820048      13.12028825      14.95497252      -0.00726569      -0.03611856       0.10397431
Si      13.61999848      11.82190600      12.94195373       0.54822305      -0.01871662      -0.45990731
Si      12.43195853      13.90431161      12.89743833      -0.12152190      -0.23569354       0.21240717
Si      13.62881364      15.42714321      14.31004578      -0.41651442       0.36397894      -0.06664660
Si      14.89602886      13.85135093      13.02058964      -0.00292105      -0.07345022       0.21017243
5
Lattice="27.25 0.0 0.0 0.0 27.25 0.0 0.0 0.0 27.25" Properties=species:S:1:pos:R:3:forces:R:3 energy=-43.721516863450304 bias_energy=-43.721268840203834 name=N pbc="T T T"
Si      13.57871795      13.08007796      14.94030689      -0.00139484      -0.04416359       0.05494965
Si      13.90518339      11.86034594      12.90362959       0.57960762       0.02656329      -0.41347408
Si      12.42828504      13.74766379      12.86128541      -0.12486491      -0.28922802       0.20408692
Si      13.34340822      15.38791080      14.34621111      -0.45949632       0.24089977      -0.09748351
Si      14.86940539      14.04900152      13.07356700       0.00614846       0.06592856       0.25192103
