5
Lattice="27.25 0.0 0.0 0.0 27.25 0.0 0.0 0.0 27.25" Properties=species:S:1:pos:R:3:forces:R:3 energy=-43.7215465328411 bias_energy=0 name=N0 pbc="T T T"
Si      14.46191987      12.95208433      12.68743103       0.26703996      -0.02044969       0.10527145
Si      12.24399639      13.28364759      13.72330633      -0.06599964      -0.06323736      -0.17994675
Si      14.04758390      12.29734586      14.95553347       0.01888090       0.35686143      -0.44985562
Si      13.20131640      14.95186442      12.29461704      -0.29398761      -0.33252127       0.58070200
Si      14.17018344      14.64005780      14.46411213       0.07406638       0.05934689      -0.05617107
5
Lattice="27.25 0.0 0.0 0.0 27.25 0.0 0.0 0.0 27.25" Properties=species:S:1:pos:R:3:forces:R:3 energy=-43.72128543600581 bias_energy=-43.72100042229026 name=N pbc="T T T"
Si      14.53842793      13.18261398      12.62317243       0.34438099       0.10341448       0.02962208
Si      12.33639131      13.02422932      13.71956256      -0.03976893      -0.22919996      -0.16483040
Si      14.33284964      12.31304882      14.84546852       0.10060991       0.26830535      -0.37068980
Si      12.92066958      14.94224301      12.40835137      -0.46870070      -0.23922129       0.52751334
Si      13.99666155      14.66286488      14.52844512       0.06347874       0.09670141      -0.02161522
5
Lattice="27.25 0.0 0.0 0.0 27.25 0.0 0.0 0.0 27.25" Properties=species:S:1:pos:R:3:forces:R:3 energy=-43.7213056471667 bias_energy=-43.721091666059365 name=N pbc="T T T"
Si      14.53171973      13.40369228      12.54727847       0.26913747       0.12896339       0.00905132
Si      12.44808726      12.83099673      13.73846026      -0.00053551      -0.21040076      -0.15729925
Si      14.59529363      12.34867656      14.69570678       0.12931044       0.26626737      -0.38631720
Si      12.65602929      14.90168141      12.55418895      -0.46681409      -0.26222049       0.55423865
Si      13.89387008      14.63995302      14.58936554       0.06890169       0.07739050      -0.01967352
5
Lattice="27.25 0.0 0.0 0.0 27.25 0.0 0.0 0.0 27.25" Properties=species:S:1:pos:R:3:forces:R:3 energy=-43.72150268387357 bias_energy=-43.72120351565777 name=N pbc="T T T"
Si      14.46861774      13.59390587      12.47607957       0.20603476       0.13876700       0.00101524
Si      12.56245556      12.68270957      13.75341548       0.02361691      -0.18487000      -0.15591650
Si      14.81603296      12.40994536      14.52874271       0.14247090       0.27072367      -0.40315927
Si      12.43570068      14.84194433      12.72138583      -0.44572818      -0.28614598       0.57706467
Si      13.84219306      14.59649488      14.64537640       0.07360560       0.06152531      -0.01900415
5
Lattice="27.25 0.0 0.0 0.0 27.25 0.0 0.0 0.0 27.25" Properties=species:S:1:pos:R:3:forces:R:3 energy=-43.721497296595544 bias_energy=-43.72111841320771 name=N pbc="T T T"
Si      14.37304293      13.76146042      12.41936816       0.15604893       0.13938957       0.00352172
Si      12.67787620      12.56762224      13.76008011       0.03689372      -0.16063308      -0.15995660
Si      15.00146971      12.48690045      14.34926799       0.14373561       0.27962231      -0.41890500
Si      12.25112262      14.76493097      12.89936213      -0.41457912      -0.30888491       0.59403045
Si      13.82148853      14.54408591      14.69692161       0.07790087       0.05050611      -0.01869057
5
Lattice="27.25 0.0 0.0 0.0 27.25 0.0 0.0 0.0 27.25" Properties=species:S:1:pos:R:3:forces:R:3 energy=-43.721512233834716 bias_energy=-43.720983502686835 name=N pbc="T T T"
Si      14.26073875      13.90653693      12.37987026       0.11694174       0.13530900       0.01345205
Si      12.78829764      12.47744280      13.75498973       0.04406910      -0.13829967      -0.16616019
Si      15.14891800      12.57703704      14.16576141       0.13736857       0.29062485      -0.43309799
Si      12.10344022      14.67414829      13.08333238      -0.37985388      -0.32875626       0.60592629
Si      13.82360538      14.48983494      14.74104621       0.08147448       0.04112208      -0.02012017
5
Lattice="27.25 0.0 0.0 0.0 27.25 0.0 0.0 0.0 27.25" Properties=species:S:1:pos:R:3:forces:R:3 energy=-43.721461495099206 bias_energy=-43.72092675171447 name=N pbc="T T T"
Si      14.13224897      14.03768988      12.35730225       0.08607105       0.12847388       0.02786916
Si      12.89753907      12.40391153      13.73900518       0.04724623      -0.11822831      -0.17314128
Si      15.26794759      12.68001257      13.97597504       0.12553582       0.30256979      -0.44535908
Si      11.98481219      14.57081780      13.27308359      -0.34381203      -0.34591338       0.61380436
Si      13.84245218      14.43256822      14.77963394       0.08495893       0.03309802      -0.02317315
5
Lattice="27.25 0.0 0.0 0.0 27.25 0.0 0.0 0.0 27.25" Properties=species:S:1:pos:R:3:forces:R:3 energy=-43.72149043302243 bias_energy=-43.72109122281015 name=N pbc="T T T"
Si      13.99182162      14.15663731      12.35370775       0.06171890       0.11918374       0.04613145
Si      13.00553280      12.34503662      13.71051373       0.04697188      -0.09875312      -0.18034280
Si      15.35893072      12.79735492      13.77826866       0.10970925       0.31516566      -0.45633761
Si      11.89262465      14.45282122      13.47140764      -0.30671093      -0.36130013       0.61801540
Si      13.87609020      14.37314993      14.81110222       0.08831090       0.02570386      -0.02746644
5
Lattice="27.25 0.0 0.0 0.0 27.25 0.0 0.0 0.0 27.25" Properties=species:S:1:pos:R:3:forces:R:3 energy=-43.72148993594422 bias_energy=-43.72104742073078 name=N pbc="T T T"
Si      13.84154324      14.26315760      12.36825111       0.04280880       0.10818525       0.06661739
Si      13.10814386      12.29761769      13.67106735       0.04387903      -0.07970178      -0.18748629
Si      15.42000086      12.92511274      13.58052989       0.09068382       0.32770577      -0.46546806
Si      11.83228876      14.32532544      13.66856990      -0.26902340      -0.37479463       0.61938555
Si      13.92302328      14.31378654      14.83658176       0.09165176       0.01860538      -0.03304858
5
Lattice="27.25 0.0 0.0 0.0 27.25 0.0 0.0 0.0 27.25" Properties=species:S:1:pos:R:3:forces:R:3 energy=-43.72149024060938 bias_energy=-43.72110880190946 name=N pbc="T T T"
Si      13.68648292      14.35733380      12.40283228       0.02927922       0.09544613       0.09030574
Si      13.20553388      12.26350217      13.61996788       0.03798912      -0.06157763      -0.19402178
Si      15.45187028      13.06300497      13.38213604       0.06820957       0.34051833      -0.47320725
Si      11.79980176      14.18727421      13.86717074      -0.23098262      -0.38677357       0.61696297
Si      13.98131116      14.25388485      14.85289306       0.09550472       0.01238674      -0.04003968
5
Lattice="27.25 0.0 0.0 0.0 27.25 0.0 0.0 0.0 27.25" Properties=species:S:1:pos:R:3:forces:R:3 energy=-43.721518937793235 bias_energy=-43.72119464346855 name=N pbc="T T T"
Si      13.52799031      14.43945336      12.45881344       0.02173859       0.08138596       0.11517329
Si      13.29499317      12.24051681      13.55722826       0.02952299      -0.04392680      -0.19948679
Si      15.45401363      13.21099790      13.18471319       0.04360077       0.35272995      -0.47900212
Si      11.79724333      14.03968581      14.06425361      -0.19412180      -0.39656212       0.61164278
Si      14.05075956      14.19434613      14.85999150       0.09925945       0.00637301      -0.04832715
5
Lattice="27.25 0.0 0.0 0.0 27.25 0.0 0.0 0.0 27.25" Properties=species:S:1:pos:R:3:forces:R:3 energy=-43.72152182676199 bias_energy=-43.721292270845645 name=N pbc="T T T"
Si      13.36599346      14.51066136      12.53846914       0.01976612       0.06618762       0.14163571
Si      13.37617039      12.22897975      13.48218998       0.01852487      -0.02683217      -0.20363461
Si      15.42455471      13.36998865      12.98860314       0.01695813       0.36437289      -0.48288271
Si      11.82615278      13.88147790      14.25983262      -0.15840734      -0.40434812       0.60314192
Si      14.13212866      14.13389234      14.85590511       0.10315822       0.00061978      -0.05826032
5
Lattice="27.25 0.0 0.0 0.0 27.25 0.0 0.0 0.0 27.25" Properties=species:S:1:pos:R:3:forces:R:3 energy=-43.72150256233053 bias_energy=-43.72135777101858 name=N pbc="T T T"
Si      13.20311059      14.57037359      12.64534987       0.02428100       0.04959448       0.17009488
Si      13.44557273      12.22973156      13.39382621       0.00501579      -0.00996088      -0.20592772
Si      15.36065443      13.53986945      12.79618841      -0.01215763       0.37549291      -0.48484003
Si      11.88970662      13.71227264      14.45200093      -0.12415472      -0.40997217       0.59105896
Si      14.22595563      14.07275277      14.83763458       0.10701555      -0.00515434      -0.07038609
5
Lattice="27.25 0.0 0.0 0.0 27.25 0.0 0.0 0.0 27.25" Properties=species:S:1:pos:R:3:forces:R:3 energy=-43.721490858306026 bias_energy=-43.721395383230096 name=N pbc="T T T"
Si      13.04556373      14.61738014      12.78211806       0.03623907       0.03204377       0.20016074
Si      13.49748073      12.24420977      13.29271983      -0.01106182       0.00621382      -0.20572524
Si      15.25982462      13.71813420      12.61293191      -0.04359527       0.38590778      -0.48469009
Si      11.99055273      13.53377063      14.63584339      -0.09240715      -0.41297766       0.57504404
Si      14.33157819      14.01150526      14.80138680       0.11082517      -0.01118770      -0.08478946
5
Lattice="27.25 0.0 0.0 0.0 27.25 0.0 0.0 0.0 27.25" Properties=species:S:1:pos:R:3:forces:R:3 energy=-43.72148710800353 bias_energy=-43.72139134150642 name=N pbc="T T T"
Si      12.90408067      14.65081704      12.94774895       0.05861813       0.01375868       0.23119078
Si      13.52460081      12.27286452      13.18336486      -0.02987788       0.02216286      -0.20202533
Si      15.12347237      13.89774212      12.44808941      -0.07688557       0.39480338      -0.48171812
Si      12.12731209      13.35242681      14.80153111      -0.06533946      -0.41316519       0.55516086
Si      14.44553405      13.95114951      14.74426567       0.11348478      -0.01755973      -0.10260818
5
Lattice="27.25 0.0 0.0 0.0 27.25 0.0 0.0 0.0 27.25" Properties=species:S:1:pos:R:3:forces:R:3 energy=-43.721470557005304 bias_energy=-43.72132707760703 name=N pbc="T T T"
Si      12.78925539      14.67187133      13.13913038       0.09275420      -0.00347785       0.26107206
Si      13.52152859      12.31439878      13.07283125      -0.05027566       0.03673599      -0.19371953
Si      14.95573720      14.07301402      12.30872967      -0.11011440       0.40144321      -0.47591052
Si      12.29418358      13.17614339      14.93993660      -0.04684658      -0.40982790       0.53193019
Si      14.56429524      13.88957248      14.66437209       0.11448245      -0.02487345      -0.12337219
5
Lattice="27.25 0.0 0.0 0.0 27.25 0.0 0.0 0.0 27.25" Properties=species:S:1:pos:R:3:forces:R:3 energy=-43.72150900536775 bias_energy=-43.72142182332078 name=N pbc="T T T"
Si      12.70556658      14.68203411      13.36873618       0.14036596      -0.01857604       0.28823228
Si      13.47714785      12.37267913      12.95867374      -0.07057936       0.04991936      -0.18020929
Si      14.74877548      14.25464948      12.19358473      -0.14102097       0.40465973      -0.46674577
Si      12.50003237      12.99709923      15.05553722      -0.04110955      -0.40241458       0.50625575
Si      14.69347772      13.81853806      14.54846814       0.11234392      -0.03358847      -0.14753297
5
Lattice="27.25 0.0 0.0 0.0 27.25 0.0 0.0 0.0 27.25" Properties=species:S:1:pos:R:3:forces:R:3 energy=-43.72150624666461 bias_energy=-43.72143672978816 name=N pbc="T T T"
Si      12.67565956      14.68754230      13.64288279       0.20910177      -0.02851330       0.30982839
Si      13.37101149      12.45495902      12.85052898      -0.09006268       0.05966612      -0.15923206
Si      14.50497397      14.43426727      12.11565103      -0.16641702       0.40285596      -0.45382791
Si      12.74518894      12.81754843      15.13416385      -0.05687310      -0.38963159       0.47768072
Si      14.82816604      13.73068298      14.38177334       0.10425102      -0.04437719      -0.17444914
5
Lattice="27.25 0.0 0.0 0.0 27.25 0.0 0.0 0.0 27.25" Properties=species:S:1:pos:R:3:forces:R:3 energy=-43.72146462336543 bias_energy=-43.72132346035466 name=N pbc="T T T"
Si      12.74471870      14.69914315      13.94762271       0.30651888      -0.03158077       0.31423421
Si      13.17903020      12.56976901      12.77440812      -0.10083344       0.06562162      -0.12726761
Si      14.25338714      14.59845110      12.08852831      -0.17493797       0.39151073      -0.43835147
Si      12.99832723      12.65311096      15.16252384      -0.11242929      -0.36723468       0.45005912
Si      14.94953673      13.60452578      14.15191702       0.08168182      -0.05831690      -0.19867425
5
Lattice="27.25 0.0 0.0 0.0 27.25 0.0 0.0 0.0 27.25" Properties=species:S:1:pos:R:3:forces:R:3 energy=-43.72145418884405 bias_energy=-43.72098774972145 name=N pbc="T T T"
Si      12.97371492      14.73142899      14.24552145       0.41886173      -0.02965265       0.27691934
Si      12.88526816      12.75104149      12.77529937      -0.08347749       0.06256458      -0.09092552
Si      14.06049528      14.72912521      12.11000030      -0.15036411       0.36573995      -0.42262945
Si      13.19256172      12.52250694      15.14135029      -0.22196462      -0.32956451       0.43520346
Si      15.01295992      13.39089737      13.85282859       0.03694449      -0.06908736      -0.19856783
5
Lattice="27.25 0.0 0.0 0.0 27.25 0.0 0.0 0.0 27.25" Properties=species:S:1:pos:R:3:forces:R:3 energy=-43.721390277997244 bias_energy=-43.720831082207454 name=N pbc="T T T"
Si      13.41228335      14.76167724      14.46005525       0.49526751      -0.04715801       0.19160811
Si      12.53815506      13.06406394      12.89145992      -0.02461172       0.04448703      -0.07370788
Si      14.02647033      14.78979616      12.14199577      -0.10598149       0.33378382      -0.40928248
Si      13.22297921      12.45901974      15.10741439      -0.34580036      -0.27776109       0.44167715
Si      14.92511204      13.05044292      13.52407467      -0.01887395      -0.05335175      -0.15029489
