5
Lattice="27.25 0.0 0.0 0.0 27.25 0.0 0.0 0.0 27.25" Properties=species:S:1:pos:R:3:forces:R:3 energy=-41.25022569000767 bias_energy=0 name=N0 pbc="T T T"
Si      13.29498928      13.41363367      11.97793091      -0.13412489       0.12127233      -0.04916772
Si      13.12939465      14.08102581      15.84986205      -0.06322084      -0.05447750      -0.53404117
Si      11.97031076      13.62520675      13.99123291       0.01966152       0.13873801      -0.02894414
Si      15.49421186      13.73018633      12.24638713       0.02002176      -0.49133569       0.54745883
Si      14.23609346      13.27494743      14.05958700       0.15766245       0.28580285       0.06469420
5
Lattice="27.25 0.0 0.0 0.0 27.25 0.0 0.0 0.0 27.25" Properties=species:S:1:pos:R:3:forces:R:3 energy=-41.24939430150417 bias_energy=-41.24909803219763 name=N pbc="T T T"
Si      13.41903032      13.43089642      11.95388230      -0.05925734       0.15255188      -0.06038542
Si      13.01127003      14.23252935      15.77795043      -0.09986434       0.04338513      -0.40146469
Si      11.95038438      13.82036684      13.85304670      -0.03401415       0.16478721      -0.14676151
Si      15.60439070      13.43869328      12.42161393       0.11878941      -0.61824738       0.52029186
Si      14.13992457      13.20251411      14.11850665       0.07434643       0.25752316       0.08831976
5
Lattice="27.25 0.0 0.0 0.0 27.25 0.0 0.0 0.0 27.25" Properties=species:S:1:pos:R:3:forces:R:3 energy=-41.249555669749256 bias_energy=-41.24939622139238 name=N pbc="T T T"
Si      13.55034887      13.38786773      11.95012093      -0.02877153       0.13339987      -0.05325414
Si      12.89509002      14.38791993      15.69266646      -0.10055618       0.05506489      -0.40461446
Si      11.97559667      14.03397967      13.68293049      -0.01672826       0.16031740      -0.15594970
Si      15.66838074      13.15363705      12.62191103       0.06625843      -0.61594420       0.53215925
Si      14.03558370      13.16159561      14.17737109       0.07979754       0.26716204       0.08165905
5
Lattice="27.25 0.0 0.0 0.0 27.25 0.0 0.0 0.0 27.25" Properties=species:S:1:pos:R:3:forces:R:3 energy=-41.24965112876562 bias_energy=-41.24951950946208 name=N pbc="T T T"
Si      13.67978391      13.32576733      11.95923414      -0.00726657       0.11206959      -0.04005211
Si      12.79757265      14.55228544      15.58623720      -0.10236022       0.06202883      -0.41039718
Si      12.03559899      14.21545285      13.50850976       0.00314412       0.15535182      -0.16407379
Si      15.68460268      12.88700795      12.84122304       0.01643402      -0.60599742       0.54290827
Si      13.92744178      13.14448642      14.22979586       0.09004864       0.27654717       0.07161481
5
Lattice="27.25 0.0 0.0 0.0 27.25 0.0 0.0 0.0 27.25" Properties=species:S:1:pos:R:3:forces:R:3 energy=-41.24973941470185 bias_energy=-41.24963983650269 name=N pbc="T T T"
Si      13.80627523      13.24146200      11.98601448       0.00713265       0.09008097      -0.02322434
Si      12.71768939      14.72491037      15.45684206      -0.10488744       0.07035164      -0.41933235
Si      12.12718962      14.36952700      13.32927092       0.02350614       0.14661056      -0.17132743
Si      15.65834826      12.64288938      13.07825365      -0.03008620      -0.59084551       0.55009280
Si      13.81549749      13.14621124      14.27461888       0.10433485       0.28380233       0.06379132
5
Lattice="27.25 0.0 0.0 0.0 27.25 0.0 0.0 0.0 27.25" Properties=species:S:1:pos:R:3:forces:R:3 energy=-41.249816528249085 bias_energy=-41.2497045170645 name=N pbc="T T T"
Si      13.92184333      13.14096982      12.03006715       0.01481609       0.06866976      -0.00192977
Si      12.65914068      14.89799686      15.30921356      -0.10714279       0.07915809      -0.43229687
Si      12.24236728      14.48881514      13.15115985       0.04403710       0.13416748      -0.17750751
Si      15.59517967      12.43122975      13.32347803      -0.07283852      -0.57096833       0.55324223
Si      13.70646904      13.16598843      14.31108142       0.12112812       0.28897300       0.05849191
5
Lattice="27.25 0.0 0.0 0.0 27.25 0.0 0.0 0.0 27.25" Properties=species:S:1:pos:R:3:forces:R:3 energy=-41.24990496966447 bias_energy=-41.249783816464685 name=N pbc="T T T"
Si      14.02455571      13.02669031      12.09206208       0.01446761       0.04992546       0.02179014
Si      12.62236950      15.06875856      15.14241854      -0.10940993       0.08724301      -0.44930986
Si      12.37640230      14.57391214      12.97631025       0.06356920       0.11851636      -0.18014038
Si      15.49978354      12.25406394      13.57567828      -0.10965686      -0.54772680       0.55181366
Si      13.60188896      13.20157504      14.33853085       0.14102998       0.29204196       0.05584645
5
Lattice="27.25 0.0 0.0 0.0 27.25 0.0 0.0 0.0 27.25" Properties=species:S:1:pos:R:3:forces:R:3 energy=-41.250021193181226 bias_energy=-41.2498918125433 name=N pbc="T T T"
Si      14.11168170      12.90068893      12.17289044       0.00644253       0.03535064       0.04701594
Si      12.60808306      15.23434831      14.95584022      -0.11120188       0.09425993      -0.47012256
Si      12.52564039      14.62509061      12.80620806       0.08159433       0.10005798      -0.17877077
Si      15.37665404      12.11373032      13.83376180      -0.13923075      -0.52287308       0.54522659
Si      13.50294080      13.25114183      14.35629948       0.16239577       0.29320453       0.05665080
5
Lattice="27.25 0.0 0.0 0.0 27.25 0.0 0.0 0.0 27.25" Properties=species:S:1:pos:R:3:forces:R:3 energy=-41.250000211065725 bias_energy=-41.24981671833084 name=N pbc="T T T"
Si      14.18120624      12.77039606      12.27411357      -0.00932732       0.02675760       0.07177104
Si      12.61810538      15.39016906      14.75095220      -0.11207580       0.09923560      -0.49414387
Si      12.68382302      14.63888420      12.64465412       0.09726640       0.07935397      -0.17234846
Si      15.23150548      12.01278358      14.08823873      -0.16049856      -0.49799182       0.53364847
Si      13.41035988      13.31276711      14.36704138       0.18463529       0.29264465       0.06107283
5
Lattice="27.25 0.0 0.0 0.0 27.25 0.0 0.0 0.0 27.25" Properties=species:S:1:pos:R:3:forces:R:3 energy=-41.25006215395952 bias_energy=-41.24982153668829 name=N pbc="T T T"
Si      14.22905577      12.63420516      12.39399336      -0.02953590       0.02448322       0.09587238
Si      12.65272703      15.53252340      14.52784377      -0.11188857       0.10180599      -0.52142086
Si      12.84762514      14.61954683      12.49352985       0.10861727       0.05824990      -0.16026743
Si      15.06883407      11.95309700      14.34340904      -0.17338343      -0.47496781       0.51605285
Si      13.32675798      13.38562761      14.36622399       0.20619063       0.29042869       0.06976306
5
Lattice="27.25 0.0 0.0 0.0 27.25 0.0 0.0 0.0 27.25" Properties=species:S:1:pos:R:3:forces:R:3 energy=-41.250162384893684 bias_energy=-41.249889465198436 name=N pbc="T T T"
Si      14.25414473      12.49328502      12.53602265      -0.05570356       0.03083969       0.11419247
Si      12.71487105      15.66050590      14.28090830      -0.11003118       0.10031063      -0.54885765
Si      13.01645333      14.56465163      12.35254446       0.11551973       0.03731500      -0.14219507
Si      14.88757759      11.93573854      14.60047621      -0.17630432      -0.45591919       0.49490715
Si      13.25195330      13.47081892      14.35504837       0.22651933       0.28745387       0.08195309
5
Lattice="27.25 0.0 0.0 0.0 27.25 0.0 0.0 0.0 27.25" Properties=species:S:1:pos:R:3:forces:R:3 energy=-41.24996966795016 bias_energy=-41.24873420038007 name=N pbc="T T T"
Si      14.24977992      12.37477336      12.68268507      -0.08543915       0.04596466       0.12514838
Si      12.79728229      15.75906086      14.03541775      -0.10658323       0.09410145      -0.57529516
Si      13.16703125      14.47787018      12.24162585       0.11663439       0.01808570      -0.11789623
Si      14.71508449      11.95740561      14.82672490      -0.16943954      -0.44236151       0.47039472
Si      13.19582206      13.55588999      14.33854643       0.24482753       0.28420970       0.09764829
5
Lattice="27.25 0.0 0.0 0.0 27.25 0.0 0.0 0.0 27.25" Properties=species:S:1:pos:R:3:forces:R:3 energy=-41.25038785836291 bias_energy=-41.25020839409654 name=N pbc="T T T"
Si      14.21231093      12.21068466      12.89558577      -0.11209840       0.06417004       0.12604550
Si      12.94286385      15.84542873      13.70955459      -0.10181810       0.08410705      -0.59572235
Si      13.34729355      14.33641294      12.11292944       0.11125143       0.00489456      -0.09187867
Si      14.48053365      12.05445749      15.10793065      -0.15480000      -0.43597336       0.44853793
Si      13.14199801      13.67801618      14.29899955       0.25746507       0.28280171       0.11301758
