5
Lattice="27.25 0.0 0.0 0.0 27.25 0.0 0.0 0.0 27.25" Properties=species:S:1:pos:R:3:forces:R:3 name=N0 pbc="T T T"
Si      13.22933743      12.26010258      14.54406804       0.23392013      -0.20382281       0.35165599
Si      13.43624073      15.12541499      11.86026736       0.17149213       0.31220391      -0.19776669
Si      12.18161626      13.49807862      12.74249286       0.22198896      -0.16178536       0.26995106
Si      15.29376705      12.91888541      15.08340548      -0.56838478      -0.00313209      -0.35147928
Si      13.98403853      14.32251840      13.89476627      -0.09922109       0.09606294      -0.00862294
5
Lattice="27.25 0.0 0.0 0.0 27.25 0.0 0.0 0.0 27.25" Properties=species:S:1:pos:R:3:forces:R:3 name=N pbc="T T T"
Si      13.22933743      12.26010258      14.54406804       0.13196033      -0.40256288       0.31389136
Si      13.43624073      15.12541499      11.86026736      -0.01678020       0.29774220      -0.13654505
Si      12.18161626      13.49807862      12.74249286       0.30756397      -0.11107084       0.28219900
Si      15.29376705      12.91888541      15.08340548      -0.51739479       0.07221813      -0.35107663
Si      13.98403853      14.32251840      13.89476627      -0.03281210       0.11729533      -0.12982373
5
Lattice="27.25 0.0 0.0 0.0 27.25 0.0 0.0 0.0 27.25" Properties=species:S:1:pos:R:3:forces:R:3 name=N pbc="T T T"
Si      13.22696196      12.25228088      14.55217139      -0.15113101      -0.32161928       0.33146811
Si      13.39906462      15.14322577      11.87654152       0.18486033       0.31131196      -0.13859600
Si      12.19362000      13.47064403      12.73365152       0.30441251      -0.07958898       0.29617638
Si      15.29697323      12.92299691      15.05653845      -0.52907818       0.10539013      -0.35102974
Si      13.96551468      14.32698151      13.89891545       0.02780009       0.08934006      -0.06183055
