5
Lattice="27.25 0.0 0.0 0.0 27.25 0.0 0.0 0.0 27.25" Properties=species:S:1:pos:R:3:forces:R:3 energy=-43.72152715778425 bias_energy=0 name=N0 pbc="T T T"
Si      12.76655655      13.75680051      11.90643844       0.11730332      -0.27761028      -0.48541632
Si      14.48307051      13.49645815      15.34494510      -0.52956353      -0.29423749      -0.08763162
Si      14.53607228      14.65408179      13.24748691       0.09627645       0.13947254       0.26197100
Si      13.94409063      12.25989411      13.36248632       0.15168455       0.18503528       0.09349652
Si      12.39521002      13.95776545      14.26364323       0.16429921       0.24733995       0.21758042
5
Lattice="27.25 0.0 0.0 0.0 27.25 0.0 0.0 0.0 27.25" Properties=species:S:1:pos:R:3:forces:R:3 energy=-43.721248531795155 bias_energy=-43.72109428362354 name=N pbc="T T T"
Si      13.07922882      13.80352625      11.78712083       0.26596779      -0.28612724      -0.37897735
Si      14.16133817      13.44983852      15.46620899      -0.55747803      -0.35040159       0.08397263
Si      14.60909867      14.63793658      13.43227079       0.06317261       0.15552551       0.27736169
Si      13.96455221      12.25992365      13.39268667       0.15459976       0.16191055       0.02488977
Si      12.31078212      13.97377500      14.04671273       0.07373787       0.31909278      -0.00724673
5
Lattice="27.25 0.0 0.0 0.0 27.25 0.0 0.0 0.0 27.25" Properties=species:S:1:pos:R:3:forces:R:3 energy=-43.72130280522378 bias_energy=-43.721177224256564 name=N pbc="T T T"
Si      13.43712646      13.85382406      11.72279974       0.24024554      -0.28572281      -0.34145049
Si      13.80541839      13.40098467      15.52941491      -0.58761974      -0.34740251       0.04183275
Si      14.65482287      14.61041613      13.64265011       0.05763528       0.13433534       0.27021112
Si      13.96402051      12.25417222      13.43018630       0.17410823       0.16937077       0.03229372
Si      12.26361176      14.00560291      13.79994894       0.11563069       0.32941921      -0.00288710
5
Lattice="27.25 0.0 0.0 0.0 27.25 0.0 0.0 0.0 27.25" Properties=species:S:1:pos:R:3:forces:R:3 energy=-43.72137150238251 bias_energy=-43.72108777083201 name=N pbc="T T T"
Si      13.80766494      13.89777501      11.72736389       0.20356621      -0.28831535      -0.31415733
Si      13.43603679      13.35791373      15.52314659      -0.60572398      -0.34036704      -0.01225456
Si      14.66810602      14.56677874      13.86094139       0.05101857       0.11474881       0.26100796
Si      13.94299474      12.24510466      13.45956206       0.19050782       0.17552678       0.04648843
Si      12.27019750      14.05742786      13.55398607       0.16063137       0.33840681       0.01891550
5
Lattice="27.25 0.0 0.0 0.0 27.25 0.0 0.0 0.0 27.25" Properties=species:S:1:pos:R:3:forces:R:3 energy=-43.72129182048327 bias_energy=-43.72081377028747 name=N pbc="T T T"
Si      14.19594272      13.93488988      11.81171188       0.16270271      -0.29172823      -0.30350270
Si      13.04771796      13.32270406      15.43805876      -0.60611684      -0.33196128      -0.07000951
Si      14.64809734      14.49745233      14.09611137       0.04449099       0.09836755       0.25127449
Si      13.89735349      12.23364719      13.47577113       0.20062044       0.17915473       0.06682491
Si      12.33588848      14.13630654      13.30334686       0.19830271       0.34616723       0.05541281
5
Lattice="27.25 0.0 0.0 0.0 27.25 0.0 0.0 0.0 27.25" Properties=species:S:1:pos:R:3:forces:R:3 energy=-43.72136751272811 bias_energy=-43.72086263143313 name=N pbc="T T T"
Si      14.61633150      13.95120446      12.00463474       0.11967548      -0.29675939      -0.31034589
Si      12.63134449      13.30172285      15.24431700      -0.58797533      -0.32138849      -0.12830266
Si      14.57732692      14.38552654      14.36380245       0.03639955       0.08660836       0.23941572
Si      13.81466253      12.22133278      13.45571182       0.20338281       0.17959712       0.09143491
Si      12.48533457      14.26521338      13.05653399       0.22851749       0.35194240       0.10779793
5
Lattice="27.25 0.0 0.0 0.0 27.25 0.0 0.0 0.0 27.25" Properties=species:S:1:pos:R:3:forces:R:3 energy=-43.7214725509221 bias_energy=-43.72094424181456 name=N pbc="T T T"
Si      15.06700367      13.92237520      12.38287340       0.07761963      -0.30239776      -0.34114039
Si      12.18526527      13.32269320      14.86712672      -0.54631560      -0.30904005      -0.18191973
Si      14.42335808      14.15734212      14.67956649       0.02761316       0.08075699       0.22310835
Si      13.66225774      12.23110460      13.33380176       0.19568458       0.17654471       0.11873059
Si      12.78711523      14.49148488      12.86163163       0.24539823       0.35413612       0.18122118
5
Lattice="27.25 0.0 0.0 0.0 27.25 0.0 0.0 0.0 27.25" Properties=species:S:1:pos:R:3:forces:R:3 energy=-43.72147300111064 bias_energy=-43.720730238426256 name=N pbc="T T T"
Si      15.43228169      13.71690935      12.96486366       0.04641735      -0.30961392      -0.40580063
Si      11.81662995      13.53098201      14.28502389      -0.47309389      -0.29976301      -0.21260465
Si      14.11802632      13.49042136      14.95463931       0.02264237       0.09744328       0.19172078
Si      13.39594771      12.46580608      12.83000280       0.16624558       0.16944431       0.14106441
Si      13.36211432      14.92088119      13.09047033       0.23778859       0.34248934       0.28562010
5
Lattice="27.25 0.0 0.0 0.0 27.25 0.0 0.0 0.0 27.25" Properties=species:S:1:pos:R:3:forces:R:3 energy=-43.7209327749577 bias_energy=-43.71757051531197 name=N pbc="T T T"
Si      15.19168633      13.74892624      12.51206376       0.04165346      -0.31252561      -0.49907861
Si      12.04991189      13.49560265      14.72747597      -0.38423640      -0.31727785      -0.17187890
Si      14.25499400      12.61022243      14.40429016       0.05811362       0.20455364       0.16797450
Si      12.84939073      13.27507105      12.48223181       0.10163290       0.18142639       0.11435381
Si      13.77901706      14.99517762      13.99893830       0.18283642       0.24382343       0.38862921
5
Lattice="27.25 0.0 0.0 0.0 27.25 0.0 0.0 0.0 27.25" Properties=species:S:1:pos:R:3:forces:R:3 energy=-43.688913060155706 bias_energy=-43.65663779626505 name=N pbc="T T T"
Si      15.44874950      13.31510515      13.06692930       0.02736108      -0.32562985      -0.42347896
Si      11.76517269      13.85536011      14.10817740      -0.45778054      -0.29652117      -0.21548654
Si      13.71727407      12.53098963      14.53068795       0.09374015       0.26763789       0.30351721
Si      13.22914965      13.49969957      12.27371126       0.14509511       0.24384849       0.09126731
Si      13.96465409      14.92384554      14.14549410       0.19158419       0.11066464       0.24418098
5
Lattice="27.25 0.0 0.0 0.0 27.25 0.0 0.0 0.0 27.25" Properties=species:S:1:pos:R:3:forces:R:3 energy=-43.62590872492558 bias_energy=-43.57351375461554 name=N pbc="T T T"
Si      15.25930707      13.53206937      12.58054314       0.01657201      -0.29286269      -0.50475760
Si      11.91643127      13.58157086      14.54698523      -0.38829651      -0.36308102      -0.13678508
Si      14.04797257      12.49224776      14.38133440       0.14755085       0.25415677       0.30395869
Si      12.91512798      13.61892666      12.41005533       0.10124551       0.27712431       0.12175745
Si      13.98616112      14.90018535      14.20608190       0.12292814       0.12466264       0.21582654
5
Lattice="27.25 0.0 0.0 0.0 27.25 0.0 0.0 0.0 27.25" Properties=species:S:1:pos:R:3:forces:R:3 energy=-43.506958711216285 bias_energy=-43.389912467575584 name=N pbc="T T T"
Si      15.33498573      13.39569650      12.73410384       0.00986714      -0.32602683      -0.43570921
Si      11.81334192      13.62900169      14.33084475      -0.42908904      -0.32953612      -0.20044344
Si      13.90231203      12.47331521      14.42362927       0.12775977       0.25051501       0.31975620
Si      13.05954962      13.76319771      12.34438876       0.14816551       0.27779377       0.11547858
Si      14.01481070      14.86378889      14.29203338       0.14329662       0.12725417       0.20091788
5
Lattice="27.25 0.0 0.0 0.0 27.25 0.0 0.0 0.0 27.25" Properties=species:S:1:pos:R:3:forces:R:3 energy=-43.349774569234285 bias_energy=-43.20621846969761 name=N pbc="T T T"
Si      15.30615960      13.34683541      12.69881964       0.00108658      -0.32255883      -0.45814564
Si      11.80807915      13.57981204      14.31553117      -0.40130279      -0.34871056      -0.18017578
Si      13.92980375      12.49536167      14.46768075       0.13355561       0.24414480       0.32276780
Si      13.05506313      13.83405833      12.34507539       0.13039680       0.28957346       0.13331489
Si      14.02589437      14.86893255      14.29789305       0.13626380       0.13755114       0.18223872
5
Lattice="27.25 0.0 0.0 0.0 27.25 0.0 0.0 0.0 27.25" Properties=species:S:1:pos:R:3:forces:R:3 energy=-43.179020320421905 bias_energy=-43.043257063353245 name=N pbc="T T T"
Si      15.13307780      13.29900282      12.46639351      -0.00337309      -0.32900782      -0.44969890
Si      11.89658695      13.56019371      14.47736340      -0.39905218      -0.35405127      -0.18107765
Si      13.93123215      12.37174586      14.30419814       0.12943698       0.24313746       0.31590579
Si      12.95183972      14.16539326      12.46022060       0.13343155       0.29700615       0.13537033
Si      14.21226338      14.72866435      14.41682435       0.13955674       0.14291548       0.17950043
5
Lattice="27.25 0.0 0.0 0.0 27.25 0.0 0.0 0.0 27.25" Properties=species:S:1:pos:R:3:forces:R:3 energy=-42.94057735922411 bias_energy=-42.89834467133144 name=N pbc="T T T"
Si      15.01797679      13.22066736      12.59743406      -0.01432555      -0.31910905      -0.41922821
Si      11.95364726      13.44539321      14.22006173      -0.43098452      -0.34888633      -0.20602783
Si      14.04251784      12.29583370      14.59230317       0.14674655       0.22907760       0.31944569
Si      12.98529825      14.46777629      12.30114424       0.17954576       0.27714568       0.14595473
Si      14.12555986      14.69532945      14.41405681       0.11901776       0.16177211       0.15985561
5
Lattice="27.25 0.0 0.0 0.0 27.25 0.0 0.0 0.0 27.25" Properties=species:S:1:pos:R:3:forces:R:3 energy=-42.84443989122268 bias_energy=-42.75499329045354 name=N pbc="T T T"
Si      14.95885503      13.13869252      12.57429315       0.05210723      -0.31285706      -0.46227025
Si      11.94763791      13.40037060      14.13781439      -0.47081983      -0.31809942      -0.14324480
Si      14.03438349      12.35249770      14.64394942       0.10508993       0.27424158       0.27962518
Si      13.03830947      14.52049833      12.33516495       0.20125077       0.23538450       0.19063032
Si      14.14581410      14.71294085      14.43377809       0.11237189       0.12133040       0.13525955
5
Lattice="27.25 0.0 0.0 0.0 27.25 0.0 0.0 0.0 27.25" Properties=species:S:1:pos:R:3:forces:R:3 energy=-43.6782807761565 bias_energy=-43.622184501398124 name=N pbc="T T T"
Si      14.42859728      12.93019815      12.63857609       0.07135741      -0.31152999      -0.46581204
Si      12.24894514      13.18244738      13.74224313      -0.48324995      -0.31998092      -0.13026746
Si      14.16032966      12.39608855      14.99628522       0.07916185       0.28864247       0.21965503
Si      13.12176627      14.93823635      12.32462419       0.20385588       0.18450948       0.22002467
Si      14.16536164      14.67802957      14.42327137       0.12887481       0.15835897       0.15639980
5
Lattice="27.25 0.0 0.0 0.0 27.25 0.0 0.0 0.0 27.25" Properties=species:S:1:pos:R:3:forces:R:3 energy=-43.625223879023736 bias_energy=-43.56159634927058 name=N pbc="T T T"
Si      14.35561579      12.60028437      12.89180935      -0.13385381      -0.32373053      -0.39899169
Si      12.22477224      13.71378955      13.24214000      -0.33261698      -0.35657566      -0.24369842
Si      13.17646658      12.40484118      15.02845307       0.07077367       0.33720295       0.24466536
Si      14.13319375      14.95772714      12.34291652       0.26881395       0.23401307       0.26268091
Si      14.23495164      14.44835775      14.61968106       0.12688318       0.10909018       0.13534384
5
Lattice="27.25 0.0 0.0 0.0 27.25 0.0 0.0 0.0 27.25" Properties=species:S:1:pos:R:3:forces:R:3 energy=-43.60153100625004 bias_energy=-43.52945041566782 name=N pbc="T T T"
Si      14.34882789      12.68474935      12.77752494      -0.08385689      -0.16729899      -0.49476088
Si      12.17814680      13.49393666      13.48615067      -0.36597884      -0.46115507      -0.09371143
Si      13.62739619      12.41203396      15.10441763       0.27622948       0.26952617       0.27486448
Si      13.71336778      14.96769058      12.26469601       0.05872177       0.17247796       0.22741903
Si      14.25726134      14.56658945      14.49221075       0.11488448       0.18644992       0.08618881
5
Lattice="27.25 0.0 0.0 0.0 27.25 0.0 0.0 0.0 27.25" Properties=species:S:1:pos:R:3:forces:R:3 energy=-43.51713499878491 bias_energy=-43.41466003070499 name=N pbc="T T T"
Si      14.39432846      12.88463592      12.61733802      -0.10596728      -0.21479223      -0.46628616
Si      12.22441143      13.16145556      13.63171723      -0.33400652      -0.45904445      -0.16430809
Si      14.09746583      12.41271987      15.01773890       0.20249426       0.31354390       0.22412095
Si      13.25168325      15.01658686      12.38258545       0.14613366       0.18894923       0.27039104
Si      14.15711104      14.64960179      14.47562040       0.09134587       0.17134355       0.13608227
5
Lattice="27.25 0.0 0.0 0.0 27.25 0.0 0.0 0.0 27.25" Properties=species:S:1:pos:R:3:forces:R:3 energy=-43.507233481661096 bias_energy=-43.21612446253179 name=N pbc="T T T"
Si      14.38104226      12.87100481      12.61315050      -0.14458193      -0.31856693      -0.42890971
Si      12.21788193      13.17641365      13.63559631      -0.33310313      -0.36352365      -0.21455115
Si      14.08750415      12.40945245      15.01937519       0.07939779       0.33488848       0.21820897
Si      13.26216066      15.02298209      12.38625932       0.24312159       0.17128214       0.26031953
Si      14.17641100      14.64514701      14.47061869       0.15516568       0.17591996       0.16493236
