5
Lattice="27.25 0.0 0.0 0.0 27.25 0.0 0.0 0.0 27.25" Properties=species:S:1:pos:R:3:forces:R:3 energy=-43.72148539458421 bias_energy=0 name=N0 pbc="T T T"
Si      14.29375925      12.76416010      15.21223270      -0.09333014       0.13326533      -0.52044538
Si      12.95409212      14.48912195      12.04062157       0.12295356      -0.09475771       0.68009736
Si      14.56781657      14.67942652      13.79989077       0.09518791      -0.19495667       0.14740020
Si      12.33312104      13.71282682      14.21966745      -0.20417932       0.20440165      -0.09014908
Si      13.97621102      12.47946461      12.85258750       0.07936798      -0.04795261      -0.21690309
5
Lattice="27.25 0.0 0.0 0.0 27.25 0.0 0.0 0.0 27.25" Properties=species:S:1:pos:R:3:forces:R:3 energy=-43.72141563380001 bias_energy=-43.721283532120886 name=N pbc="T T T"
Si      14.24413533      12.48094948      15.04515923      -0.12595802      -0.08805191      -0.50660503
Si      13.00582002      14.76863250      12.20489807       0.08530549       0.13243918       0.63642075
Si      14.66047927      14.55562370      13.92586190       0.21115178      -0.20459341       0.20971989
Si      12.35636442      13.73968909      14.26778295      -0.17978063       0.17387453      -0.03014390
Si      13.85820096      12.58010523      12.68129785       0.00928138      -0.01366839      -0.30939171
5
Lattice="27.25 0.0 0.0 0.0 27.25 0.0 0.0 0.0 27.25" Properties=species:S:1:pos:R:3:forces:R:3 energy=-43.721451649731684 bias_energy=-43.72128793677748 name=N pbc="T T T"
Si      14.17272967      12.25605037      14.86408143      -0.13878925      -0.08083770      -0.51462790
Si      13.07799563      14.99501691      12.38635789       0.11704613       0.13314351       0.64520403
Si      14.71802363      14.43760074      14.04399146       0.17331164      -0.21947636       0.21056200
Si      12.36636979      13.72579345      14.28831717      -0.17303518       0.13472159      -0.04544894
Si      13.78988128      12.71053853      12.54225205       0.02146666       0.03244896      -0.29568919
5
Lattice="27.25 0.0 0.0 0.0 27.25 0.0 0.0 0.0 27.25" Properties=species:S:1:pos:R:3:forces:R:3 energy=-43.721476751791954 bias_energy=-43.7213125197593 name=N pbc="T T T"
Si      14.08979404      12.07352096      14.66821625      -0.14463243      -0.06165763      -0.52191706
Si      13.16112008      15.17654464      12.58088112       0.13884403       0.11557148       0.65482190
Si      14.75435293      14.31595299      14.15312392       0.14452777      -0.23300083       0.20268222
Si      12.36762696      13.70118087      14.29337817      -0.16949419       0.11392034      -0.06293536
Si      13.75210600      12.85780054      12.42940055       0.03075482       0.06516665      -0.27265170
5
Lattice="27.25 0.0 0.0 0.0 27.25 0.0 0.0 0.0 27.25" Properties=species:S:1:pos:R:3:forces:R:3 energy=-43.7214821217885 bias_energy=-43.72129469962469 name=N pbc="T T T"
Si      14.00129388      11.93133222      14.46366692      -0.14761425      -0.03765448      -0.52864335
Si      13.24915211      15.31855646      12.78459763       0.15376398       0.08897991       0.66325822
Si      14.77590938      14.18855292      14.24968923       0.11926483      -0.24546159       0.19079032
Si      12.36223520      13.67332632      14.28505505      -0.16571798       0.10526073      -0.07912644
Si      13.73640943      13.01323208      12.34199118       0.04030342       0.08887543      -0.24627874
5
Lattice="27.25 0.0 0.0 0.0 27.25 0.0 0.0 0.0 27.25" Properties=species:S:1:pos:R:3:forces:R:3 energy=-43.721466841833376 bias_energy=-43.72123762890527 name=N pbc="T T T"
Si      13.91118095      11.82588821      14.25566282      -0.14864626      -0.01091323      -0.53366924
Si      13.33878627      15.42460684      12.99463485       0.16360121       0.05771545       0.67072904
Si      14.78552456      14.05574992      14.33149260       0.09710689      -0.25586538       0.17566214
Si      12.35185606      13.64707689      14.26508372      -0.16190298       0.10400813      -0.09388713
Si      13.73765217      13.17167814      12.27812601       0.04984114       0.10505503      -0.21883482
5
Lattice="27.25 0.0 0.0 0.0 27.25 0.0 0.0 0.0 27.25" Properties=species:S:1:pos:R:3:forces:R:3 energy=-43.72145550423693 bias_energy=-43.72124654534528 name=N pbc="T T T"
Si      13.82091191      11.75315600      14.04063881      -0.14818404       0.01611521      -0.53734314
Si      13.42955310      15.49746762      13.21186764       0.16977737       0.02456391       0.67626413
Si      14.78427560      13.91565994      14.40077413       0.07752716      -0.26363771       0.15918335
Si      12.33719004      13.62687175      14.23661057      -0.15810289       0.10766869      -0.10641582
Si      13.75306936      13.33184469      12.23510884       0.05898241       0.11528991      -0.19168852
5
Lattice="27.25 0.0 0.0 0.0 27.25 0.0 0.0 0.0 27.25" Properties=species:S:1:pos:R:3:forces:R:3 energy=-43.72142104211504 bias_energy=-43.721213308253425 name=N pbc="T T T"
Si      13.73117189      11.71147099      13.82152475      -0.14652394       0.04446442      -0.53952180
Si      13.51953888      15.53925894      13.43204428       0.17328797      -0.01073945       0.68007760
Si      14.77265088      13.76959826      14.45673869       0.05902183      -0.26921046       0.14140895
Si      12.32122628      13.61282624      14.20117598      -0.15368416       0.11474159      -0.11710608
Si      13.78041207      13.49184557      12.21351630       0.06789830       0.12074390      -0.16485867
5
Lattice="27.25 0.0 0.0 0.0 27.25 0.0 0.0 0.0 27.25" Properties=species:S:1:pos:R:3:forces:R:3 energy=-43.7213504825611 bias_energy=-43.72112673359143 name=N pbc="T T T"
Si      13.64419077      11.69993790      13.60284688      -0.14382064       0.07334763      -0.54040029
Si      13.60708588      15.54990540      13.65247405       0.17425768      -0.04729350       0.68190370
Si      14.75117643      13.62075819      14.49741743       0.04117596      -0.27269487       0.12280109
Si      12.30416990      13.60697585      14.15994268      -0.14801604       0.12448508      -0.12594790
Si      13.81837702      13.64742265      12.21231896       0.07640304       0.12215566      -0.13835660
5
Lattice="27.25 0.0 0.0 0.0 27.25 0.0 0.0 0.0 27.25" Properties=species:S:1:pos:R:3:forces:R:3 energy=-43.721453517195414 bias_energy=-43.72126937775582 name=N pbc="T T T"
Si      13.55748546      11.71617140      13.37897248      -0.14003077       0.10221452      -0.53928871
Si      13.69274130      15.53321288      13.87326177       0.17296014      -0.08416675       0.68204252
Si      14.71865518      13.46757627      14.52497933       0.02458807      -0.27393913       0.10346471
Si      12.28793244      13.60836792      14.11608997      -0.14174670       0.13622781      -0.13315855
Si      13.86818562      13.79967152      12.23169645       0.08422926       0.11966356      -0.11305998
5
Lattice="27.25 0.0 0.0 0.0 27.25 0.0 0.0 0.0 27.25" Properties=species:S:1:pos:R:3:forces:R:3 energy=-43.721443508089806 bias_energy=-43.721217089038944 name=N pbc="T T T"
Si      13.47867803      11.76215276      13.16435231      -0.13555036       0.13147721      -0.53684642
Si      13.77170265      15.48700705      14.08848303       0.16945619      -0.12158745       0.68030660
Si      14.67725910      13.31430328      14.53492601       0.00825106      -0.27268844       0.08325331
Si      12.27093081      13.62131986      14.06937514      -0.13384021       0.14977851      -0.13821545
Si      13.92642940      13.94021704      12.26786352       0.09168331       0.11302017      -0.08849804
5
Lattice="27.25 0.0 0.0 0.0 27.25 0.0 0.0 0.0 27.25" Properties=species:S:1:pos:R:3:forces:R:3 energy=-43.72147722905606 bias_energy=-43.721233547433485 name=N pbc="T T T"
Si      13.40496371      11.83366486      12.95443350      -0.13024824       0.15990488      -0.53291676
Si      13.84495089      15.41543055      14.29651622       0.16405918      -0.15850730       0.67672487
Si      14.62464035      13.16194245      14.52899647      -0.00683269      -0.26862066       0.06324171
Si      12.25691299      13.64326778      14.02274437      -0.12530856       0.16447506      -0.14127848
Si      13.99353206      14.07069436      12.32230944       0.09833031       0.10274803      -0.06577134
5
Lattice="27.25 0.0 0.0 0.0 27.25 0.0 0.0 0.0 27.25" Properties=species:S:1:pos:R:3:forces:R:3 energy=-43.72153943383521 bias_energy=-43.721289180829125 name=N pbc="T T T"
Si      13.33878093      11.93255736      12.75231407      -0.12439298       0.18810293      -0.52790712
Si      13.91070839      15.31776780      14.49658335       0.15696407      -0.19495166       0.67126624
Si      14.56226843      13.01162850      14.50648001      -0.02149702      -0.26153648       0.04327128
Si      12.24486068      13.67620320      13.97726810      -0.11517245       0.17986113      -0.14218494
Si      14.06838157      14.18684314      12.39235447       0.10409837       0.08852408      -0.04444546
