5
Lattice="27.25 0.0 0.0 0.0 27.25 0.0 0.0 0.0 27.25" Properties=species:S:1:pos:R:3:forces:R:3 energy=-43.72151672009824 bias_energy=0 name=N0 pbc="T T T"
Si      14.97267050      14.09156276      13.65323712      -0.13647512      -0.08071621       0.23172141
Si      13.23338062      14.84414352      12.18572203      -0.05263325       0.29416395      -0.69278222
Si      12.63441204      14.25880462      14.43172377      -0.09786029      -0.10648463       0.22886825
Si      14.01642110      12.40633674      15.06343667       0.45748270      -0.11432193       0.12538698
Si      13.26811574      12.52415235      12.79088041      -0.17051404       0.00735882       0.10680558
5
Lattice="27.25 0.0 0.0 0.0 27.25 0.0 0.0 0.0 27.25" Properties=species:S:1:pos:R:3:forces:R:3 energy=-43.7212395268981 bias_energy=-43.72046495609623 name=N pbc="T T T"
Si      14.79452204      14.36087388      13.28095268      -0.22390375       0.06851428       0.16203524
Si      12.64059912      14.54876092      12.25007633      -0.03493447       0.11815818      -0.57576396
Si      12.72613570      14.12819935      14.61046404      -0.08399095      -0.14842914       0.15309495
Si      14.61632426      12.70717931      14.99659073       0.62391624      -0.09259116       0.07584387
Si      13.34741888      12.37998654      12.98691621      -0.28108707       0.05434784       0.18478990
5
Lattice="27.25 0.0 0.0 0.0 27.25 0.0 0.0 0.0 27.25" Properties=species:S:1:pos:R:3:forces:R:3 energy=-43.72138549598827 bias_energy=-43.71935652580877 name=N pbc="T T T"
Si      13.68946395      14.79600263      14.43605087      -0.20122008      -0.01164442       0.27515315
Si      12.73490841      14.62902828      12.24126412       0.11929560       0.22858793      -0.61934152
Si      12.49911737      12.75335812      13.71799147      -0.12362218      -0.17606555       0.12620982
Si      14.51385630      12.61809629      15.00549763       0.49225052      -0.09366219       0.03295767
Si      14.68765397      13.32851467      12.72419590      -0.28670387       0.05278424       0.18502088
5
Lattice="27.25 0.0 0.0 0.0 27.25 0.0 0.0 0.0 27.25" Properties=species:S:1:pos:R:3:forces:R:3 energy=-43.71735410691027 bias_energy=-43.70741434803451 name=N pbc="T T T"
Si      13.18454489      14.79425423      14.31631623      -0.31453155      -0.13342042       0.19796483
Si      12.18194321      13.82443915      12.35700420       0.05913947       0.16413629      -0.60081171
Si      13.11226043      12.35502680      14.02956810      -0.06735214      -0.00520938       0.27999225
Si      15.09271717      13.43074093      14.86538988       0.55249250      -0.04541846       0.03254295
Si      14.55353431      13.72053890      12.55672158      -0.22974828       0.01991198       0.09031168
5
Lattice="27.25 0.0 0.0 0.0 27.25 0.0 0.0 0.0 27.25" Properties=species:S:1:pos:R:3:forces:R:3 energy=-43.714358467019515 bias_energy=-43.70117561997154 name=N pbc="T T T"
Si      13.17064966      14.66639105      14.49099385      -0.18409303      -0.20993961       0.28421242
Si      12.44828852      14.26060639      12.22746116       0.12433513       0.35019776      -0.65302461
Si      12.93835440      12.37488639      13.65444826      -0.17275824       0.01136404       0.17996703
Si      14.83971275      13.00070303      14.99310423       0.37764984      -0.15314278       0.02591188
Si      14.72799467      13.82241314      12.75899250      -0.14513371       0.00152058       0.16293328
5
Lattice="27.25 0.0 0.0 0.0 27.25 0.0 0.0 0.0 27.25" Properties=species:S:1:pos:R:3:forces:R:3 energy=-43.72131007787659 bias_energy=-43.72013190481356 name=N pbc="T T T"
Si      12.40191396      13.05056811      14.07833481      -0.23661584      -0.20980869       0.21528268
Si      12.68859029      14.49177148      12.18115804       0.12372316       0.26157109      -0.62417157
Si      14.42940608      12.92780941      12.68019552      -0.15196491       0.01261361       0.26138598
Si      14.56870466      12.75967567      15.06480025       0.46943707      -0.08286295       0.00877444
Si      14.03638500      14.89517533      14.12051139      -0.20457948       0.01848694       0.13872847
5
Lattice="27.25 0.0 0.0 0.0 27.25 0.0 0.0 0.0 27.25" Properties=species:S:1:pos:R:3:forces:R:3 energy=-43.70847969732041 bias_energy=-43.69027332105934 name=N pbc="T T T"
Si      12.45597366      13.12506925      14.28214524      -0.07959538       0.02449683       0.21761479
Si      12.66028761      13.79517436      11.95191862       0.10711448       0.15377476      -0.62957035
Si      14.51357095      12.71284843      13.00413905      -0.19784478      -0.15197213       0.24620523
Si      14.64453074      13.46265145      15.26123554       0.51064133      -0.01744603       0.06436133
Si      13.85063705      15.02925650      13.62556155      -0.34031565      -0.00885343       0.10138900
5
Lattice="27.25 0.0 0.0 0.0 27.25 0.0 0.0 0.0 27.25" Properties=species:S:1:pos:R:3:forces:R:3 energy=-43.667766831199174 bias_energy=-43.62769306881567 name=N pbc="T T T"
Si      12.40265469      13.19000904      14.24802871      -0.09217025      -0.02465341       0.15202622
Si      12.68473479      14.25865198      12.04002314       0.11634641       0.35968639      -0.56565546
Si      14.31923941      12.70264599      12.81477087      -0.25100312      -0.15734759       0.20168530
Si      14.68283725      13.01877339      15.13656900       0.49479998      -0.13592554       0.01336014
Si      14.03553386      14.95491960      13.88560829      -0.26797301      -0.04175985       0.19858380
5
Lattice="27.25 0.0 0.0 0.0 27.25 0.0 0.0 0.0 27.25" Properties=species:S:1:pos:R:3:forces:R:3 energy=-43.56310925295389 bias_energy=-43.4490740798035 name=N pbc="T T T"
Si      12.43227556      13.34413199      14.40387850      -0.08396755      -0.02288629       0.19386496
Si      12.63183920      14.04863459      11.99020956       0.13194706       0.23631992      -0.60027701
Si      14.18573221      12.51658535      12.95757471      -0.23921360      -0.14611455       0.24314441
Si      14.82305170      13.24681790      15.11947345       0.50902390      -0.04936555       0.02089885
Si      14.05210133      14.96883016      13.65386378      -0.31778982      -0.01795353       0.14236879
5
Lattice="27.25 0.0 0.0 0.0 27.25 0.0 0.0 0.0 27.25" Properties=species:S:1:pos:R:3:forces:R:3 energy=-43.42784733190879 bias_energy=-43.29442539060171 name=N pbc="T T T"
Si      12.40571726      13.45227216      14.41453151      -0.08642699      -0.05892516       0.18221055
Si      12.73109544      14.34110995      12.01897187       0.14908826       0.29300825      -0.59954567
Si      13.96464107      12.47781582      12.87487906      -0.25180970      -0.13137307       0.24345093
Si      14.80842684      12.96063576      15.03302545       0.47639572      -0.08608780      -0.00282662
Si      14.21511938      14.89316633      13.78359211      -0.28724729      -0.01662223       0.17671082
5
Lattice="27.25 0.0 0.0 0.0 27.25 0.0 0.0 0.0 27.25" Properties=species:S:1:pos:R:3:forces:R:3 energy=-43.27905245101815 bias_energy=-43.115436592519835 name=N pbc="T T T"
Si      12.45347495      13.50850492      14.51402901      -0.07969362      -0.07767515       0.21499686
Si      12.67490428      14.15951628      11.97692450       0.13692438       0.21847711      -0.61682623
Si      13.90525912      12.37526870      13.00382403      -0.23544086      -0.10823541       0.26410045
Si      14.93019505      13.15075059      14.99777058       0.49017578      -0.03789897       0.00179696
Si      14.16116661      14.93095951      13.63245188      -0.31196568       0.00533242       0.13593195
5
Lattice="27.25 0.0 0.0 0.0 27.25 0.0 0.0 0.0 27.25" Properties=species:S:1:pos:R:3:forces:R:3 energy=-43.17171817775483 bias_energy=-42.916795045431016 name=N pbc="T T T"
Si      12.45315953      13.50217078      14.53129492      -0.07619841      -0.09053332       0.22817652
Si      12.70471858      14.16669117      11.95368438       0.15313695       0.25858893      -0.62997685
Si      13.88049536      12.36656731      13.01200605      -0.23496431      -0.08621614       0.25567494
Si      14.94760991      13.15015438      14.98222439       0.45120498      -0.06970597      -0.00912442
Si      14.13901663      14.93941636      13.64579026      -0.29317921      -0.01213350       0.15524981
5
Lattice="27.25 0.0 0.0 0.0 27.25 0.0 0.0 0.0 27.25" Properties=species:S:1:pos:R:3:forces:R:3 energy=-42.91842890127161 bias_energy=-42.755821143210376 name=N pbc="T T T"
Si      12.46339008      13.48234652      14.56251843      -0.07041106      -0.09609492       0.25247932
Si      12.78874074      14.19112692      11.92109189       0.15641773       0.25723020      -0.63629347
Si      13.81293199      12.32306500      13.01492868      -0.23134628      -0.07103845       0.24920693
Si      14.98410419      13.13661306      14.91250302       0.43990995      -0.06856488      -0.00809720
Si      14.07583299      14.99184851      13.71395798      -0.29457034      -0.02153195       0.14270443
5
Lattice="27.25 0.0 0.0 0.0 27.25 0.0 0.0 0.0 27.25" Properties=species:S:1:pos:R:3:forces:R:3 energy=-42.81292512023607 bias_energy=-42.558571265766766 name=N pbc="T T T"
Si      12.47314414      13.46733160      14.59818238      -0.05952195      -0.10466559       0.28878328
Si      12.81326506      14.19879664      11.89257449       0.14687628       0.25671258      -0.64917266
Si      13.79217220      12.32914338      13.01206573      -0.21608504      -0.02877864       0.24448715
Si      14.99216775      13.13829611      14.90312321       0.42336522      -0.06754802       0.00560301
Si      14.05425085      14.99143228      13.71905419      -0.29463451      -0.05572034       0.11029923
5
Lattice="27.25 0.0 0.0 0.0 27.25 0.0 0.0 0.0 27.25" Properties=species:S:1:pos:R:3:forces:R:3 energy=-42.53456995801753 bias_energy=-42.42324202996226 name=N pbc="T T T"
Si      12.55620589      13.37212063      14.72954376      -0.05131050      -0.11151462       0.31417935
Si      12.84450252      14.22604303      11.87077049       0.15172362       0.25525520      -0.65418201
Si      13.73352468      12.33465032      12.97227384      -0.21322275      -0.01284326       0.23565748
Si      15.06101613      13.15812594      14.78500411       0.40595912      -0.06486242       0.00646036
Si      13.92975078      15.03406008      13.76740780      -0.29314948      -0.06603490       0.09788483
5
Lattice="27.25 0.0 0.0 0.0 27.25 0.0 0.0 0.0 27.25" Properties=species:S:1:pos:R:3:forces:R:3 energy=-42.32530554305215 bias_energy=-42.2564845218863 name=N pbc="T T T"
Si      12.60524417      13.32538025      14.85760304      -0.02965839      -0.11795377       0.34527396
Si      12.91161751      14.24641675      11.77093384       0.14476673       0.26216139      -0.67367553
Si      13.68819080      12.39149672      12.96352560      -0.19670510       0.03260346       0.23368463
Si      15.04535647      13.16512726      14.79176781       0.35935054      -0.06515579       0.02966289
Si      13.87459105      14.99657902      13.74116972      -0.27775377      -0.11165529       0.06505405
5
Lattice="27.25 0.0 0.0 0.0 27.25 0.0 0.0 0.0 27.25" Properties=species:S:1:pos:R:3:forces:R:3 energy=-42.18485361392749 bias_energy=-42.18434660310943 name=N pbc="T T T"
Si      12.69627296      13.23805417      15.10219759      -0.01284034      -0.13159488       0.38532027
Si      13.17923587      14.26961144      11.62006676       0.14215770       0.26285509      -0.68075818
Si      13.50493414      12.41882308      12.98784943      -0.18649514       0.05047033       0.22027553
Si      15.06257818      13.21288863      14.63859488       0.32176136      -0.05826450       0.02232108
Si      13.68197886      14.98562268      13.77629134      -0.26458358      -0.12346604       0.05284130
5
Lattice="27.25 0.0 0.0 0.0 27.25 0.0 0.0 0.0 27.25" Properties=species:S:1:pos:R:3:forces:R:3 energy=-42.17930801927049 bias_energy=-42.16364532195638 name=N pbc="T T T"
Si      12.86941903      13.14092434      15.29601999      -0.01658222      -0.11789248       0.33360641
Si      13.36146880      14.29490263      11.55411926       0.02006312       0.28215300      -0.68706675
Si      13.31846199      12.47032051      13.02661999      -0.12864565       0.11908444       0.24006523
Si      15.11853895      13.27906100      14.44510008       0.35458686      -0.08583989       0.09494129
Si      13.45711123      14.93979152      13.80314068      -0.22942211      -0.19750507       0.01845382
5
Lattice="27.25 0.0 0.0 0.0 27.25 0.0 0.0 0.0 27.25" Properties=species:S:1:pos:R:3:forces:R:3 energy=-42.09659742452388 bias_energy=-42.03178227292475 name=N pbc="T T T"
Si      12.95616830      13.10174680      15.30088813      -0.01580218      -0.07102152       0.21350552
Si      13.01044735      14.34114418      11.52896671      -0.17138509       0.30794188      -0.68246056
Si      13.43526309      12.54290659      13.00895340      -0.04010293       0.11085432       0.23200737
Si      15.20785868      13.26662773      14.52500760       0.38033687      -0.14513145       0.24724666
Si      13.51526258      14.87257470      13.76118417      -0.15304666      -0.20264324      -0.01029899
5
Lattice="27.25 0.0 0.0 0.0 27.25 0.0 0.0 0.0 27.25" Properties=species:S:1:pos:R:3:forces:R:3 energy=-41.991068017255614 bias_energy=-41.924800260292685 name=N pbc="T T T"
Si      13.02336040      13.06937734      15.40567522      -0.00893501      -0.07044863       0.24694854
Si      13.24376577      14.37959871      11.44968788       0.08711795       0.31930348      -0.68467895
Si      13.29918770      12.54364118      13.04597680      -0.16328254       0.02441717       0.28654725
Si      15.18817879      13.28125273      14.43647629       0.35193222      -0.11915403       0.10594948
Si      13.37050734      14.85113005      13.78718381      -0.26683262      -0.15411799       0.04523368
5
Lattice="27.25 0.0 0.0 0.0 27.25 0.0 0.0 0.0 27.25" Properties=species:S:1:pos:R:3:forces:R:3 energy=-42.03087638636197 bias_energy=-41.74472899044974 name=N pbc="T T T"
Si      13.08651773      13.06818319      15.40898859      -0.02303888      -0.08738194       0.29044975
Si      13.30007756      14.36968084      11.47936229      -0.05569723       0.33432771      -0.73599336
Si      13.24833934      12.52703322      13.08009793      -0.07003232       0.00022595       0.25118132
Si      15.18460034      13.31065870      14.33653058       0.31348518      -0.12521970       0.16069220
Si      13.30546502      14.84944404      13.82002061      -0.16471675      -0.12195202       0.03367009
