5
Lattice="27.25 0.0 0.0 0.0 27.25 0.0 0.0 0.0 27.25" Properties=species:S:1:pos:R:3:forces:R:3 energy=-43.72153048494512 bias_energy=0 name=N0 pbc="T T T"
Si      15.25267998      13.36693949      12.62686303      -0.52494180       0.06860007       0.35114592
Si      11.99842582      13.88536190      14.62426511       0.52646391       0.00018362      -0.46258835
Si      13.47207478      14.91583016      13.04154171       0.01302877      -0.03500199      -0.08963927
Si      14.34902789      13.47241419      14.84304664       0.08651246      -0.18323121       0.13232424
Si      13.05279153      12.48445427      12.98928352      -0.10106335       0.14944951       0.06875745
5
Lattice="27.25 0.0 0.0 0.0 27.25 0.0 0.0 0.0 27.25" Properties=species:S:1:pos:R:3:forces:R:3 energy=-43.721491524735285 bias_energy=-43.72119142554027 name=N pbc="T T T"
Si      15.23246044      13.01841428      12.75512705      -0.43605758      -0.03591619       0.36871635
Si      12.01713882      14.22891013      14.49642059       0.45075653       0.19824091      -0.44863022
Si      13.81948503      14.92605260      13.07627215       0.14605697       0.05626757      -0.11617465
Si      14.18756251      13.29645616      14.89370978       0.05282724      -0.31019281       0.19453981
Si      12.86835320      12.65516683      12.90347043      -0.21358317       0.09160052       0.00154870
5
Lattice="27.25 0.0 0.0 0.0 27.25 0.0 0.0 0.0 27.25" Properties=species:S:1:pos:R:3:forces:R:3 energy=-43.72151869610272 bias_energy=-43.721356768462265 name=N pbc="T T T"
Si      15.14588975      12.71786426      12.86867289      -0.44449026      -0.12437358       0.35994426
Si      12.10267384      14.53018878      14.38104009       0.46682745       0.24211250      -0.43987881
Si      14.05914874      14.84688464      13.03170630       0.17940486      -0.00859259      -0.13530359
Si      14.06695736      13.27393633      14.93510617       0.00837976      -0.21818708       0.17801948
Si      12.75033030      12.75612599      12.90847456      -0.21012181       0.10904075       0.03721866
5
Lattice="27.25 0.0 0.0 0.0 27.25 0.0 0.0 0.0 27.25" Properties=species:S:1:pos:R:3:forces:R:3 energy=-43.721521877104394 bias_energy=-43.72143789133769 name=N pbc="T T T"
Si      15.01659629      12.45852096      12.98416545      -0.46142914      -0.14335079       0.34931185
Si      12.23249017      14.79031551      14.26537155       0.48562605       0.23929827      -0.43311883
Si      14.24845874      14.72813122      12.97208073       0.17625189      -0.05888680      -0.13860567
Si      13.97514651      13.30238460      14.96993095      -0.00011052      -0.15805263       0.16409274
Si      12.65230829      12.84564771      12.93345131      -0.20033828       0.12099195       0.05831991
5
Lattice="27.25 0.0 0.0 0.0 27.25 0.0 0.0 0.0 27.25" Properties=species:S:1:pos:R:3:forces:R:3 energy=-43.72146916510174 bias_energy=-43.72134953611729 name=N pbc="T T T"
Si      14.86401976      12.24737143      13.09687993      -0.47937799      -0.13676441       0.34286647
Si      12.38615513      15.00299647      14.15169133       0.50406961       0.21764333      -0.42935536
Si      14.39544951      14.59021800      12.91459997       0.16025696      -0.09923067      -0.13336096
Si      13.90942010      13.35343197      14.99710223       0.00319628      -0.11743975       0.14873696
Si      12.56995550      12.93098214      12.96472653      -0.18814485       0.13579150       0.07111288
5
Lattice="27.25 0.0 0.0 0.0 27.25 0.0 0.0 0.0 27.25" Properties=species:S:1:pos:R:3:forces:R:3 energy=-43.7214935499182 bias_energy=-43.72137076751321 name=N pbc="T T T"
Si      14.69012718      12.07315652      13.21234140      -0.49478355      -0.11989189       0.33922920
Si      12.55899042      15.17620711      14.03736448       0.51905439       0.18920104      -0.42757083
Si      14.51301343      14.43796010      12.86224297       0.13917467      -0.12911389      -0.12467503
Si      13.86468471      13.41825534      15.01627186       0.01197555      -0.09089427       0.13432549
Si      12.49818426      13.01942092      12.99677928      -0.17542106       0.15069901       0.07869117
5
Lattice="27.25 0.0 0.0 0.0 27.25 0.0 0.0 0.0 27.25" Properties=species:S:1:pos:R:3:forces:R:3 energy=-43.72149566856386 bias_energy=-43.721353624648536 name=N pbc="T T T"
Si      14.50338495      11.93533789      13.32828238      -0.50828303      -0.09684114       0.33690889
Si      12.74533335      15.31371582      13.92242923       0.53127788       0.15668788      -0.42676234
Si      14.60244060      14.27525190      12.81662884       0.11526258      -0.15157603      -0.11382763
Si      13.83749657      13.48842786      15.02873697       0.02335619      -0.07304993       0.12075817
Si      12.43634453      13.11226653      13.02892259      -0.16161362       0.16477922       0.08292292
5
Lattice="27.25 0.0 0.0 0.0 27.25 0.0 0.0 0.0 27.25" Properties=species:S:1:pos:R:3:forces:R:3 energy=-43.72148134357063 bias_energy=-43.72129397328416 name=N pbc="T T T"
Si      14.31030612      11.83264097      13.44221814      -0.51955334      -0.07052023       0.33534823
Si      12.93943870      15.41702371      13.80778993       0.54057365       0.12235020      -0.42603551
Si      14.66588706      14.10739571      12.77900051       0.08985643      -0.16826308      -0.10221671
Si      13.82537876      13.55916874      15.03506353       0.03561534      -0.06167482       0.10744334
Si      12.38398936      13.20877088      13.06092789      -0.14649207       0.17810792       0.08546065
5
Lattice="27.25 0.0 0.0 0.0 27.25 0.0 0.0 0.0 27.25" Properties=species:S:1:pos:R:3:forces:R:3 energy=-43.72127965748405 bias_energy=-43.72107295461934 name=N pbc="T T T"
Si      14.11318723      11.76359572      13.55226010      -0.52831134      -0.04222076       0.33388587
Si      13.14083853      15.48815686      13.68919606       0.54704307       0.08730207      -0.42546701
Si      14.70457835      13.93671885      12.75060776       0.06408717      -0.17951851      -0.09040462
Si      13.82609488      13.62654604      15.03868304       0.04781567      -0.05574302       0.09491831
Si      12.34030101      13.30998254      13.09425304      -0.13063458       0.19018022       0.08706744
5
Lattice="27.25 0.0 0.0 0.0 27.25 0.0 0.0 0.0 27.25" Properties=species:S:1:pos:R:3:forces:R:3 energy=-43.72117592191002 bias_energy=-43.720959597871236 name=N pbc="T T T"
Si      13.91009858      11.72130873      13.66507358      -0.53481947      -0.01334085       0.33233263
Si      13.34426856      15.52967277      13.57311694       0.55010484       0.05213797      -0.42448330
Si      14.72223737      13.76601228      12.72836662       0.03896782      -0.18710071      -0.07922023
Si      13.84158584      13.69100657      15.03483473       0.06000784      -0.05367164       0.08353703
Si      12.30680965      13.41699965      13.12360814      -0.11426102       0.20197524       0.08783388
5
Lattice="27.25 0.0 0.0 0.0 27.25 0.0 0.0 0.0 27.25" Properties=species:S:1:pos:R:3:forces:R:3 energy=-43.72123383093578 bias_energy=-43.7210839893974 name=N pbc="T T T"
Si      13.69870067      11.70748090      13.78195482      -0.53992284       0.01654165       0.33088839
Si      13.55389772      15.54222363      13.45691357       0.55040075       0.01790736      -0.42321805
Si      14.71747458      13.58859309      12.71145965       0.01365143      -0.19027745      -0.06775412
Si      13.87087187      13.75275399      15.02593483       0.07231777      -0.05581041       0.07249926
Si      12.28405516      13.53394838      13.14873713      -0.09644710       0.21163885       0.08758452
5
Lattice="27.25 0.0 0.0 0.0 27.25 0.0 0.0 0.0 27.25" Properties=species:S:1:pos:R:3:forces:R:3 energy=-43.721345238375726 bias_energy=-43.72123692087272 name=N pbc="T T T"
Si      13.48320553      11.72503089      13.90063611      -0.54314362       0.04821363       0.32907389
Si      13.76749890      15.52321948      13.34096608       0.54852888      -0.01720301      -0.42172023
Si      14.68828337      13.40843262      12.70102604      -0.01266003      -0.18888244      -0.05595123
Si      13.91233406      13.80847992      15.01151031       0.08408267      -0.06177867       0.06179491
Si      12.27367814      13.65983709      13.17086145      -0.07680789       0.21965050       0.08680266
5
Lattice="27.25 0.0 0.0 0.0 27.25 0.0 0.0 0.0 27.25" Properties=species:S:1:pos:R:3:forces:R:3 energy=-43.72128726285248 bias_energy=-43.72118283835666 name=N pbc="T T T"
Si      13.27128288      11.77395443      14.01515089      -0.54437464       0.08139188       0.32689382
Si      13.97802949      15.47413368      13.22493477       0.54414256      -0.05280413      -0.41940889
Si      14.63534491      13.23404426      12.69955536      -0.03947129      -0.18364952      -0.04415156
Si      13.96359592      13.85239971      14.99309046       0.09492326      -0.07101385       0.05097467
Si      12.27674680      13.79046792      13.19226852      -0.05521988       0.22607561       0.08569196
5
Lattice="27.25 0.0 0.0 0.0 27.25 0.0 0.0 0.0 27.25" Properties=species:S:1:pos:R:3:forces:R:3 energy=-43.721286835504586 bias_energy=-43.721163308476214 name=N pbc="T T T"
Si      13.06798152      11.85223318      14.12562023      -0.54355675       0.11467396       0.32427299
Si      14.17986170      15.39592006      13.11470342       0.53660656      -0.08693762      -0.41716949
Si      14.55924760      13.06851925      12.70405092      -0.06523364      -0.17390888      -0.03288073
Si      14.02344377      13.88399214      14.97109743       0.10457324      -0.08439421       0.04110602
Si      12.29446540      13.92433537      13.20952800      -0.03238941       0.23056676       0.08467121
5
Lattice="27.25 0.0 0.0 0.0 27.25 0.0 0.0 0.0 27.25" Properties=species:S:1:pos:R:3:forces:R:3 energy=-43.72126140729402 bias_energy=-43.72108644427004 name=N pbc="T T T"
Si      12.87830792      11.95718441      14.22904430      -0.54066679       0.14793398       0.32129388
Si      14.36795205      15.29124233      13.01182589       0.52669840      -0.11941498      -0.41470364
Si      14.46203832      12.91641241      12.71438512      -0.08955636      -0.15957533      -0.02238184
Si      14.08902936      13.90121554      14.94596584       0.11212647      -0.10126960       0.03193121
Si      12.32767234      14.05894531      13.22377886      -0.00860172       0.23232593       0.08386039
5
Lattice="27.25 0.0 0.0 0.0 27.25 0.0 0.0 0.0 27.25" Properties=species:S:1:pos:R:3:forces:R:3 energy=-43.72114672281837 bias_energy=-43.7207828495921 name=N pbc="T T T"
Si      12.70891354      12.08163939      14.32169616      -0.53579566       0.18045641       0.31791644
Si      14.53487663      15.16738102      12.91852452       0.51458205      -0.14949913      -0.41208737
Si      14.35006745      12.78543161      12.72908721      -0.11181226      -0.14113273      -0.01288236
Si      14.15596187      13.90202134      14.91989997       0.11718563      -0.12118505       0.02341447
Si      12.37518052      14.18852664      13.23579214       0.01584024       0.23136050       0.08363882
5
Lattice="27.25 0.0 0.0 0.0 27.25 0.0 0.0 0.0 27.25" Properties=species:S:1:pos:R:3:forces:R:3 energy=-43.721383549623866 bias_energy=-43.721243605992385 name=N pbc="T T T"
Si      12.54505731      12.24470858      14.41918754      -0.52937147       0.21087191       0.31449288
Si      14.70294484      15.00527317      12.82810911       0.50083235      -0.17547787      -0.40968664
Si      14.20229058      12.66241433      12.74564723      -0.13072279      -0.11928255      -0.00516219
Si      14.22940451      13.88468006      14.88995209       0.11924806      -0.14362643       0.01602722
Si      12.44530276      14.32792386      13.24210402       0.04001385       0.22751494       0.08432873
5
Lattice="27.25 0.0 0.0 0.0 27.25 0.0 0.0 0.0 27.25" Properties=species:S:1:pos:R:3:forces:R:3 energy=-43.72147172148088 bias_energy=-43.72139880705585 name=N pbc="T T T"
Si      12.39216883      12.44241948      14.51082639      -0.52080635       0.24252798       0.31018843
Si      14.85716870      14.80734608      12.73748581       0.48398274      -0.19976867      -0.40690108
Si      14.02709835      12.55946152      12.76788953      -0.14852050      -0.09087021       0.00214877
Si      14.30613821      13.84188576      14.85834488       0.11871813      -0.17145274       0.00803906
Si      12.54242591      14.47388716      13.25045340       0.06662598       0.21956364       0.08652482
5
Lattice="27.25 0.0 0.0 0.0 27.25 0.0 0.0 0.0 27.25" Properties=species:S:1:pos:R:3:forces:R:3 energy=-43.7215147954616 bias_energy=-43.721466257159676 name=N pbc="T T T"
Si      12.26105067      12.67498009      14.59570861      -0.50965044       0.27369708       0.30583925
Si      14.98990613      14.57415964      12.65357248       0.46404829      -0.21870123      -0.40533406
Si      13.82074052      12.48655303      12.79054903      -0.16160219      -0.05439367       0.00671260
Si      14.38062319      13.76727824      14.82536386       0.11221177      -0.20663358       0.00079925
Si      12.67267949      14.62202899      13.25980602       0.09499257       0.20603140       0.09198297
5
Lattice="27.25 0.0 0.0 0.0 27.25 0.0 0.0 0.0 27.25" Properties=species:S:1:pos:R:3:forces:R:3 energy=-43.72144288002828 bias_energy=-43.721367436228235 name=N pbc="T T T"
Si      12.16364444      12.92925408      14.66670793      -0.49634960       0.30114505       0.30147849
Si      15.08691523      14.31987133      12.58158349       0.44241188      -0.22771261      -0.40558100
Si      13.59386763      12.45871905      12.80803090      -0.16678689      -0.00901627       0.00715752
Si      14.44241650      13.65462447      14.79238765       0.09729336      -0.24964743      -0.00628568
Si      12.83815620      14.76253106      13.27629003       0.12343125       0.18523126       0.10323067
5
Lattice="27.25 0.0 0.0 0.0 27.25 0.0 0.0 0.0 27.25" Properties=species:S:1:pos:R:3:forces:R:3 energy=-43.72139295885644 bias_energy=-43.72118799436268 name=N pbc="T T T"
Si      12.10540963      13.18575204      14.72333487      -0.48247323       0.31745240       0.29797292
Si      15.14465140      14.06333276      12.52539273       0.42296934      -0.21843773      -0.40881764
Si      13.35873732      12.49040145      12.80708515      -0.15939016       0.04510684       0.00081223
Si      14.47846303      13.50005603      14.75915573       0.06972707      -0.29930716      -0.01437988
Si      13.03773863      14.88545772      13.31003153       0.14916699       0.15518565       0.12441237
