5
Lattice="27.25 0.0 0.0 0.0 27.25 0.0 0.0 0.0 27.25" Properties=species:S:1:pos:R:3:forces:R:3 energy=-43.72145685731469 bias_energy=0 name=N0 pbc="T T T"
Si      14.92221674      14.20165642      13.77304179      -0.17715113       0.13446915      -0.11232602
Si      13.25596403      14.82475870      12.16336983      -0.26521144      -0.42238967       0.18002881
Si      13.99101682      12.42291885      15.08444958       0.14747905       0.49931795      -0.42579948
Si      13.43338294      12.51052018      12.75720752       0.31342163      -0.00735088       0.17810807
Si      12.52241947      14.16514585      14.34693128      -0.01853812      -0.20404655       0.17998862
5
Lattice="27.25 0.0 0.0 0.0 27.25 0.0 0.0 0.0 27.25" Properties=species:S:1:pos:R:3:forces:R:3 energy=-43.72152269995699 bias_energy=-43.721450804420456 name=N pbc="T T T"
Si      14.83862229      14.36928748      13.69351441      -0.13580909       0.30491748      -0.15286244
Si      13.04427326      14.70992161      12.14181789      -0.42420104      -0.39617383       0.08685877
Si      14.20697088      12.54117388      15.10827179       0.30054768       0.40437672      -0.22280612
Si      13.54767140      12.46215173      12.80499982       0.33578525      -0.09879949       0.11890598
Si      12.48746218      14.04246529      14.37639609      -0.07632279      -0.21432089       0.16990381
