5
Lattice="27.25 0.0 0.0 0.0 27.25 0.0 0.0 0.0 27.25" Properties=species:S:1:pos:R:3:forces:R:3 name=N0 pbc="T T T"
Si      14.02374942      12.19369114      12.81467613      -0.04808619       0.24033121       0.10440267
Si      13.75372972      15.89255426      14.11706872       0.16494176       0.33692419      -0.12780313
Si      14.45452897      14.55023195      12.47509819      -0.14446424      -0.28756058       0.17908836
Si      12.99095636      11.68012515      14.72782023       0.02149088      -0.71682609      -0.05258421
Si      12.90203553      13.80839750      13.99033672       0.20044958       0.21777002       0.17795312
5
Lattice="27.25 0.0 0.0 0.0 27.25 0.0 0.0 0.0 27.25" Properties=species:S:1:pos:R:3:forces:R:3 name=N pbc="T T T"
Si      14.02374942      12.19369114      12.81467613      -0.03926986       0.35153743       0.15301283
Si      13.75372972      15.89255426      14.11706872       0.32995778       0.45452136      -0.10840766
Si      14.45452897      14.55023195      12.47509819      -0.26155934      -0.29379917       0.15190823
Si      12.99095636      11.68012515      14.72782023      -0.21314746      -0.44417152       0.22543033
Si      12.90203553      13.80839750      13.99033672       0.01926398       0.22901584       0.00930834
5
Lattice="27.25 0.0 0.0 0.0 27.25 0.0 0.0 0.0 27.25" Properties=species:S:1:pos:R:3:forces:R:3 name=N pbc="T T T"
Si      13.16660280      12.39249003      13.43138145      -0.11964036       0.33358916       0.14391895
Si      14.41352446      16.04953383      14.16620226       0.01513769       0.47782209      -0.08091361
Si      14.21287142      14.42333670      12.64824085      -0.27117813      -0.20817218       0.18777869
Si      12.53566410      12.41860497      15.57501889      -0.39385834      -0.38729714      -0.02656610
Si      12.93892344      14.38721619      14.54846898       0.16337863       0.31769438       0.18170332
5
Lattice="27.25 0.0 0.0 0.0 27.25 0.0 0.0 0.0 27.25" Properties=species:S:1:pos:R:3:forces:R:3 name=N pbc="T T T"
Si      12.36121935      12.97948828      13.68234131      -0.15284162       0.33351850       0.12026827
Si      14.17861159      16.34806853      14.60141480       0.09594128       0.42940504      -0.30309710
Si      13.65607587      14.90004168      12.98820739      -0.24217802      -0.21231368       0.18100830
Si      11.92815867      12.88529080      15.87695615      -0.35057973      -0.40742653      -0.10714728
Si      12.52284735      14.86613020      14.97686186       0.15240532       0.26251552       0.19095285
5
Lattice="27.25 0.0 0.0 0.0 27.25 0.0 0.0 0.0 27.25" Properties=species:S:1:pos:R:3:forces:R:3 name=N pbc="T T T"
Si      11.21710437      13.76699499      13.90578661       0.15828926       0.16067533       0.04798019
Si      14.05593342      16.43794318      14.42663441       0.30686249       0.24621541      -0.29671477
Si      12.67180597      15.46292121      12.96891643      -0.23448790      -0.28683830       0.22118855
Si      11.44845627      13.42195320      16.09976211      -0.39654641      -0.44609217      -0.12530006
Si      12.25492748      15.33580185      15.21929702       0.18633436       0.23908561       0.23234589
5
Lattice="27.25 0.0 0.0 0.0 27.25 0.0 0.0 0.0 27.25" Properties=species:S:1:pos:R:3:forces:R:3 name=N pbc="T T T"
Si      10.78490026      14.76554895      15.21876086      -0.06626225       0.07506586       0.26323462
Si      14.47897385      14.91878819      13.88506535       0.29184696       0.05679784      -0.19684075
Si      12.56413365      16.03450634      14.19850238      -0.14134397      -0.48461027       0.02958002
Si      11.28849842      12.65243283      15.74714741      -0.41260116      -0.41672110      -0.17769310
Si      12.97845807      14.10569718      15.36557093       0.09217026       0.22290133       0.32277461
5
Lattice="27.25 0.0 0.0 0.0 27.25 0.0 0.0 0.0 27.25" Properties=species:S:1:pos:R:3:forces:R:3 name=N pbc="T T T"
Si      10.41684133      13.86705447      15.78744561      -0.09747760       0.05096115       0.18667714
Si      14.04846069      13.94069083      14.28569422       0.29767834       0.05850586      -0.25657023
Si      12.25739170      15.14281090      14.86868460      -0.11813280      -0.50402800       0.04907404
Si      10.76125618      11.66119172      15.92845468      -0.39442792      -0.43466130      -0.13094735
Si      12.54444317      13.02324253      15.69856508       0.05865346       0.20149185       0.34509569
5
Lattice="27.25 0.0 0.0 0.0 27.25 0.0 0.0 0.0 27.25" Properties=species:S:1:pos:R:3:forces:R:3 name=N pbc="T T T"
Si      10.03990783      12.91881002      16.10235360      -0.11673922       0.04582147       0.15358029
Si      13.67750030      12.99422177      14.61836970       0.29895203       0.06108468      -0.28362455
Si      11.91153864      14.19623702      15.27054051      -0.10403303      -0.50364099       0.07125678
Si      10.31816403      10.70096326      16.10719090      -0.38782985      -0.44312200      -0.11197545
Si      12.14219601      12.01976443      15.95357938       0.04101858       0.19206282       0.34598555
5
Lattice="27.25 0.0 0.0 0.0 27.25 0.0 0.0 0.0 27.25" Properties=species:S:1:pos:R:3:forces:R:3 name=N pbc="T T T"
Si       9.69900488      12.06739234      16.38177126      -0.13188099       0.03979523       0.11093872
Si      13.31382529      12.13547825      14.84042586       0.29652163       0.06336599      -0.31047664
Si      11.59691401      13.34759835      15.60170843      -0.09790412      -0.50814314       0.09123707
Si       9.92069584       9.85052594      16.24531154      -0.38134081      -0.44853093      -0.07603170
Si      11.77458603      11.13001814      16.14678289       0.02852923       0.18245900       0.34318301
5
Lattice="27.25 0.0 0.0 0.0 27.25 0.0 0.0 0.0 27.25" Properties=species:S:1:pos:R:3:forces:R:3 name=N pbc="T T T"
Si       9.33122591      11.17232745      16.64772616      -0.14738255       0.03835848       0.08380538
Si      12.91147992      11.24888517      15.02728152       0.29295214       0.06784335      -0.32510482
Si      11.22300580      12.44799255      15.86323493      -0.09378711      -0.50604927       0.09913405
Si       9.51149876       8.95615494      16.42599170      -0.37844743      -0.45158192      -0.04812692
Si      11.38532219      10.20887127      16.32410634       0.02035078       0.17983193       0.34167064
5
Lattice="27.25 0.0 0.0 0.0 27.25 0.0 0.0 0.0 27.25" Properties=species:S:1:pos:R:3:forces:R:3 name=N pbc="T T T"
Si       8.93215260      10.34981552      16.86262608      -0.14204596       0.03399919       0.07518796
Si      12.48429685      10.47411998      15.18421168       0.29540264       0.07530079      -0.32825540
Si      10.80742376      11.65231173      16.07285685      -0.08898707      -0.50590027       0.09232595
Si       9.13344531       8.13659432      16.61448482      -0.37509624      -0.46226826      -0.03470969
Si      10.99302661       9.41033147      16.50493745       0.02346803       0.17068488       0.33863460
5
Lattice="27.25 0.0 0.0 0.0 27.25 0.0 0.0 0.0 27.25" Properties=species:S:1:pos:R:3:forces:R:3 name=N pbc="T T T"
Si       8.43725136       9.37448564      17.15007597      -0.12344237       0.01985392       0.04587687
Si      11.92182023       9.72310491      15.36234001       0.30788195       0.10645967      -0.33416999
Si      10.21531892      10.78187273      16.33815212      -0.06113364      -0.49730674       0.07617953
Si       8.71531311       7.18175597      16.80723438      -0.35811378      -0.49926697      -0.01127139
Si      10.51840718       8.53560927      16.67597186       0.02712354       0.14124984       0.33058540
5
Lattice="27.25 0.0 0.0 0.0 27.25 0.0 0.0 0.0 27.25" Properties=species:S:1:pos:R:3:forces:R:3 name=N pbc="T T T"
Si       7.99304020       8.32553681      16.93291986      -0.18525851       0.04299662      -0.20248409
Si      11.59675179       9.17236882      15.61229331       0.23572412       0.15731422      -0.40001394
Si       9.93466219       9.75030007      16.99525891      -0.08336996      -0.53466086       0.29220682
Si       8.13528984       6.55767447      15.56919228      -0.29329321      -0.42327550       0.10879932
Si      10.03930037       7.62925876      16.16088823      -0.06017877       0.07444268       0.13462847
5
Lattice="27.25 0.0 0.0 0.0 27.25 0.0 0.0 0.0 27.25" Properties=species:S:1:pos:R:3:forces:R:3 name=N pbc="T T T"
Si       7.67162095       7.46127197      16.96539336      -0.22638983       0.12030729      -0.28395176
Si      10.82930195       9.18444903      15.38885084       0.24536995       0.24197028      -0.29246270
Si       9.70150992       8.74118831      17.27563096      -0.27788922      -0.45089100       0.19352059
Si       7.27368238       6.78933419      14.87205423      -0.34211298      -0.34676279       0.15183705
Si       9.35135215       7.48063137      15.40081162      -0.10994153       0.24088437       0.03044310
5
Lattice="27.25 0.0 0.0 0.0 27.25 0.0 0.0 0.0 27.25" Properties=species:S:1:pos:R:3:forces:R:3 name=N pbc="T T T"
Si       6.97361500       7.56330800      16.40764495       0.06157268       0.02378549       0.05693240
Si      10.37494692       9.29369173      15.57110322       0.45236030       0.25073310      -0.14738034
Si       9.12977161       8.30755645      17.16506229      -0.35481952      -0.12651156       0.16578867
Si       6.61074336       7.58659464      14.21362083      -0.38364289      -0.12765117      -0.09286360
Si       8.72222989       7.87314852      14.95537413       0.03116902       0.59806418       0.05516624
5
Lattice="27.25 0.0 0.0 0.0 27.25 0.0 0.0 0.0 27.25" Properties=species:S:1:pos:R:3:forces:R:3 name=N pbc="T T T"
Si       6.88667051       7.65983691      16.49572122       0.19536792       0.36631430       0.32587860
Si       9.71917348      10.19630353      15.58958190       0.41271622       0.33167952      -0.12348346
Si       9.02868738       8.58972367      17.00001441      -0.28675129      -0.09197883       0.15985453
Si       5.89791288       8.31695647      14.61368469      -0.29782579      -0.07243724      -0.08264290
Si       8.09351855       8.77742490      14.91517996       0.32326904       0.26021943       0.19136377
5
Lattice="27.25 0.0 0.0 0.0 27.25 0.0 0.0 0.0 27.25" Properties=species:S:1:pos:R:3:forces:R:3 name=N pbc="T T T"
Si       6.79649030       8.36105886      17.33511254      -0.12904559       0.03956014      -0.17232230
Si       9.89581469       9.86401268      15.45843604       0.36259654       0.22582842      -0.28022652
Si       9.07854162       9.05298018      17.39854125      -0.34613648      -0.20662567       0.21485125
Si       5.79915889       8.31207218      15.34184368      -0.36759171      -0.17066621       0.16441324
Si       8.04849678       8.55608126      15.42045242       0.00080018       0.52656483       0.11775585
5
Lattice="27.25 0.0 0.0 0.0 27.25 0.0 0.0 0.0 27.25" Properties=species:S:1:pos:R:3:forces:R:3 name=N pbc="T T T"
Si       6.31718887       8.61880154      17.30459604      -0.02685384       0.01684877      -0.06581279
Si       9.22996400      10.27252442      15.28803594       0.38944228       0.25215883      -0.29646202
Si       8.65616798       9.03700169      17.08861546      -0.28815738      -0.11366427       0.23106633
Si       5.01587114       9.06600045      15.55486905      -0.22893113      -0.09890641       0.18378508
Si       7.26243954       9.14635449      15.28435016       0.20704527       0.60471721       0.19405961
5
Lattice="27.25 0.0 0.0 0.0 27.25 0.0 0.0 0.0 27.25" Properties=species:S:1:pos:R:3:forces:R:3 name=N pbc="T T T"
Si       6.55842668       8.34692628      17.23258496       0.36155611       0.29110792       0.17360137
Si       9.14307797      10.68597445      15.44214027       0.45584193       0.36144261      -0.37157157
Si       8.77738855       8.79945024      16.62533525      -0.17833078       0.00235102       0.21356827
Si       4.91951960       9.61141759      16.44366568      -0.11553761       0.00844444       0.00453067
Si       7.01949542       9.88229087      15.60011755      -0.28979711       0.20385374       0.24799110
5
Lattice="27.25 0.0 0.0 0.0 27.25 0.0 0.0 0.0 27.25" Properties=species:S:1:pos:R:3:forces:R:3 name=N pbc="T T T"
Si       6.65529666       8.71288631      17.65852920       0.30187280       0.14765863       0.03788781
Si       9.00178328      10.47645713      15.01786305       0.37101248       0.21096527      -0.38466262
Si       8.86607511       9.09327270      16.77573994      -0.29117097       0.01906571       0.18385767
Si       4.99531394       9.57903505      16.43810604      -0.04693489      -0.05832685       0.14334321
Si       7.08282604      10.43940343      16.21899526      -0.14863185       0.53121773       0.32577408
5
Lattice="27.25 0.0 0.0 0.0 27.25 0.0 0.0 0.0 27.25" Properties=species:S:1:pos:R:3:forces:R:3 name=N pbc="T T T"
Si       6.49565464       8.78045270      17.71570948       0.34260329       0.21343937       0.15603112
Si       8.80730233      10.95082917      15.40623711       0.32786029       0.24461673      -0.37104745
Si       8.65619966       9.23026929      16.86530957      -0.23476076       0.03052658       0.21209599
Si       4.83040391      10.07998862      17.02232560       0.10364088      -0.01536394       0.01223265
Si       6.98094138      10.82081740      16.78658877      -0.07502923       0.51156352       0.35809504
