5
Lattice="27.25 0.0 0.0 0.0 27.25 0.0 0.0 0.0 27.25" Properties=species:S:1:pos:R:3:forces:R:3 energy=-41.25021843731722 bias_energy=0 name=N0 pbc="T T T"
Si      12.39127359      14.72298972      13.99792343      -0.17009790      -0.19523105       0.43244564
Si      15.80478079      12.93831515      13.22335430      -0.16049217       0.02012656       0.04587617
Si      14.81481690      14.73411402      14.11392825       0.63513331      -0.21937650      -0.03748303
Si      11.49159743      12.92079649      13.03129558      -0.17734777       0.29831462      -0.32460578
Si      13.62253129      12.80878462      13.75849844      -0.12719547       0.09616639      -0.11623300
5
Lattice="27.25 0.0 0.0 0.0 27.25 0.0 0.0 0.0 27.25" Properties=species:S:1:pos:R:3:forces:R:3 energy=-41.2503818515391 bias_energy=-41.25034057640339 name=N pbc="T T T"
Si      12.48622222      14.72217081      14.22482174      -0.15283662      -0.17154835       0.51314355
Si      15.74700061      12.85346802      13.08681739      -0.12260845      -0.09406407      -0.01519208
Si      14.89289823      14.50273923      14.32735903       0.54169729      -0.19977191       0.00089420
Si      11.44825218      13.24832333      12.90540488      -0.12914478       0.36484858      -0.35739580
Si      13.55062676      12.79829862      13.58059696      -0.13710744       0.10053576      -0.14144988
