5
Lattice="27.25 0.0 0.0 0.0 27.25 0.0 0.0 0.0 27.25" Properties=species:S:1:pos:R:3:forces:R:3 name=N0 pbc="T T T"
Si      11.88427130      14.79571637      14.33020610       0.33276887      -0.28124826      -0.10058375
Si      15.36497387      12.58934711      12.75084021       0.34080624       0.14024606      -0.37728033
Si      15.69259619      14.25358696      14.07697144       0.17278976      -0.43530205       0.27793853
Si      11.58278877      13.18330928      12.93579038      -0.19023662       0.23621151      -0.19893155
Si      13.60036987      13.30304029      14.03119187      -0.08485493       0.25661571       0.14381693
5
Lattice="27.25 0.0 0.0 0.0 27.25 0.0 0.0 0.0 27.25" Properties=species:S:1:pos:R:3:forces:R:3 name=N pbc="T T T"
Si      11.88427130      14.79571637      14.33020610       0.25340443      -0.26196949       0.02923072
Si      15.36497387      12.58934711      12.75084021       0.13144476       0.30753021      -0.64504319
Si      15.69259619      14.25358696      14.07697144       0.02743854       0.12422886       0.19327343
Si      11.58278877      13.18330928      12.93579038      -0.41679039      -0.05494783      -0.06787051
Si      13.60036987      13.30304029      14.03119187      -0.24010430       0.20207587       0.07074981
5
Lattice="27.25 0.0 0.0 0.0 27.25 0.0 0.0 0.0 27.25" Properties=species:S:1:pos:R:3:forces:R:3 name=N pbc="T T T"
Si      11.80609856      14.43819789      14.64253298       0.36968296      -0.12537404       0.03769977
Si      15.18095791      13.45696063      12.04921320       0.48630518       0.37010111      -0.17679843
Si      15.61059655      14.31604948      13.97546338       0.06973670       0.02906162       0.03684420
Si      11.42536847      13.29414342      12.85586192      -0.46894834      -0.03526056       0.00431724
Si      13.56640770      13.31354471      13.68307684      -0.24888533       0.38615702       0.04656624
5
Lattice="27.25 0.0 0.0 0.0 27.25 0.0 0.0 0.0 27.25" Properties=species:S:1:pos:R:3:forces:R:3 name=N pbc="T T T"
Si      11.94164421      14.41889426      14.76575235       0.20922180      -0.05862737      -0.16964357
Si      15.25543460      14.00520725      11.93718941       0.45024853       0.39836133      -0.24782417
Si      15.67385240      14.40448689      14.01799108       0.08713380       0.02138754       0.03036804
Si      11.40707152      13.47250800      12.90445190      -0.49268418      -0.03343748       0.03892312
Si      13.62795025      13.46920388      13.50241544      -0.19531350       0.44376469       0.10844650
