5
Lattice="27.25 0.0 0.0 0.0 27.25 0.0 0.0 0.0 27.25" Properties=species:S:1:pos:R:3:forces:R:3 energy=-43.72153226505669 bias_energy=0 name=N0 pbc="T T T"
Si      13.16728638      15.16783316      14.68292691      -0.56767473       0.07990941       0.35325549
Si      14.08624454      12.08310653      12.56692024       0.12813109      -0.48939641      -0.39279978
Si      12.62035476      12.86640926      14.29478585       0.12614718       0.11488931      -0.00742199
Si      14.95166725      13.66494504      14.14293303       0.12676725       0.11194060       0.09162633
Si      13.29944707      14.34270601      12.43743397       0.18662921       0.18265708      -0.04466005
5
Lattice="27.25 0.0 0.0 0.0 27.25 0.0 0.0 0.0 27.25" Properties=species:S:1:pos:R:3:forces:R:3 energy=-43.72123688757589 bias_energy=-43.72075711633968 name=N pbc="T T T"
Si      12.87061103      14.98275329      14.76343177      -0.68449248      -0.06673000       0.33683096
Si      14.37984975      12.27516882      12.47894359       0.14565365      -0.27933788      -0.31467730
Si      12.64583520      12.69243379      14.08051306       0.18056280      -0.00012737      -0.11332586
Si      14.86705679      13.73624917      14.31562094       0.03748330       0.16215664       0.07024157
Si      13.36164722      14.43839493      12.48649065       0.32079272       0.18403862       0.02093064
5
Lattice="27.25 0.0 0.0 0.0 27.25 0.0 0.0 0.0 27.25" Properties=species:S:1:pos:R:3:forces:R:3 energy=-43.72142669982986 bias_energy=-43.72102040374307 name=N pbc="T T T"
Si      12.48129859      14.63947146      14.79905715      -0.66524366      -0.09606339       0.29960372
Si      14.76962536      12.61031051      12.45313430       0.08584121      -0.33640903      -0.30526447
Si      12.72297213      12.52485361      13.70012996       0.19724616       0.06326054      -0.09399285
Si      14.69108618      13.73804453      14.56443002       0.03987654       0.16206988       0.04254204
Si      13.46001774      14.61231990      12.60824857       0.34227974       0.20714199       0.05711155
5
Lattice="27.25 0.0 0.0 0.0 27.25 0.0 0.0 0.0 27.25" Properties=species:S:1:pos:R:3:forces:R:3 energy=-43.72121772495789 bias_energy=-43.71871622836164 name=N pbc="T T T"
Si      12.16070698      14.35963953      14.64057933      -0.57786459      -0.07048706       0.25503443
Si      15.08164724      12.88353982      12.60480335      -0.00338363      -0.47722548      -0.32475188
Si      12.70134918      13.11125635      12.67237926       0.16694228       0.16245164      -0.02865841
Si      14.01165897      12.83758893      14.74890547       0.07217434       0.17434078      -0.00455453
Si      14.16963763      14.93297537      13.45833259       0.34213160       0.21092012       0.10293038
5
Lattice="27.25 0.0 0.0 0.0 27.25 0.0 0.0 0.0 27.25" Properties=species:S:1:pos:R:3:forces:R:3 energy=-43.719433494843365 bias_energy=-43.71301845804991 name=N pbc="T T T"
Si      12.63780641      14.75636434      14.83864146      -0.42680686       0.01106773       0.28747802
Si      14.59247590      12.47552656      12.41249441      -0.05921501      -0.58995381      -0.38830004
Si      12.40994118      13.27275371      12.97701756       0.09779859       0.24263240       0.05121443
Si      14.11041422      12.86807869      14.72932852       0.19159619       0.27892655       0.06949606
Si      14.37436229      14.75227670      13.16751805       0.19662709       0.05732713      -0.01988847
5
Lattice="27.25 0.0 0.0 0.0 27.25 0.0 0.0 0.0 27.25" Properties=species:S:1:pos:R:3:forces:R:3 energy=-43.66764020560906 bias_energy=-43.62054399211181 name=N pbc="T T T"
Si      12.30165000      14.47978507      14.77714311      -0.62970330      -0.09099463       0.26910686
Si      14.86192912      12.66667881      12.46355040       0.02854271      -0.44344893      -0.29419815
Si      12.57276725      13.17325597      12.81086124       0.22286516       0.17506875      -0.06186723
Si      14.13830702      12.92157867      14.74866945       0.22464687       0.25544810       0.02469012
Si      14.25034661      14.88370148      13.32477580       0.15364856       0.10392670       0.06226841
5
Lattice="27.25 0.0 0.0 0.0 27.25 0.0 0.0 0.0 27.25" Properties=species:S:1:pos:R:3:forces:R:3 energy=-43.55779735489027 bias_energy=-43.45388960409704 name=N pbc="T T T"
Si      12.43183920      14.62105124      14.82512361      -0.51480375      -0.04875743       0.26640074
Si      14.65148810      12.44861076      12.43490791      -0.04685817      -0.54960541      -0.32994166
Si      12.48963202      13.26478750      12.90077711       0.16604924       0.23816201       0.00856347
Si      14.19936968      12.98143714      14.75734878       0.19944211       0.27550773       0.05290140
Si      14.35267100      14.80911336      13.20684259       0.19617057       0.08469310       0.00207605
5
Lattice="27.25 0.0 0.0 0.0 27.25 0.0 0.0 0.0 27.25" Properties=species:S:1:pos:R:3:forces:R:3 energy=-43.51826359462921 bias_energy=-43.25288877015189 name=N pbc="T T T"
Si      12.41240727      14.59944243      14.83074716      -0.58988731      -0.10568104       0.28117736
Si      14.65767654      12.44330642      12.43655462      -0.00547865      -0.47552026      -0.30197783
Si      12.49935532      13.27624182      12.88515639       0.21431245       0.21342127      -0.03291542
Si      14.20705025      12.99004979      14.75709599       0.19795460       0.25484001       0.03180439
Si      14.34851062      14.81595954      13.21544583       0.18309890       0.11294002       0.02191149
5
Lattice="27.25 0.0 0.0 0.0 27.25 0.0 0.0 0.0 27.25" Properties=species:S:1:pos:R:3:forces:R:3 energy=-43.28767719288977 bias_energy=-43.12956295279467 name=N pbc="T T T"
Si      12.22487113      14.38120824      14.82259313      -0.58495714      -0.10588997       0.27998548
Si      14.77350362      12.53179456      12.43850872      -0.00957731      -0.48124861      -0.30124419
Si      12.59920297      13.34862851      12.73951369       0.21347203       0.21686079      -0.02937024
Si      14.19223736      12.97329953      14.75453991       0.19417165       0.25497727       0.03234977
Si      14.33518492      14.89006917      13.36984454       0.18689077       0.11530052       0.01827918
5
Lattice="27.25 0.0 0.0 0.0 27.25 0.0 0.0 0.0 27.25" Properties=species:S:1:pos:R:3:forces:R:3 energy=-43.56682231120628 bias_energy=-43.45935186779198 name=N pbc="T T T"
Si      12.43625186      14.26415165      15.05417439      -0.53290691      -0.07678655       0.27535634
Si      14.65255124      12.81456160      12.16356694      -0.04361834      -0.53556760      -0.30171755
Si      14.75751236      14.41000562      14.09969841       0.18998344       0.24146289       0.02101676
Si      12.81555039      14.30279240      12.67573651       0.16730868       0.26204841       0.04203425
Si      13.46313414      12.33348873      14.13182374       0.21923313       0.10884284      -0.03668979
5
Lattice="27.25 0.0 0.0 0.0 27.25 0.0 0.0 0.0 27.25" Properties=species:S:1:pos:R:3:forces:R:3 energy=-43.4827827436343 bias_energy=-43.36910338143372 name=N pbc="T T T"
Si      12.39347780      14.44937435      14.92738688      -0.56523989      -0.00660848       0.21199996
Si      14.65634571      12.57080924      12.31705537      -0.00543596      -0.53897602      -0.31603341
Si      14.50361639      14.79451602      13.54666554       0.09260884       0.12413035      -0.04265091
Si      12.56552595      13.62001378      12.72234780       0.22399802       0.17281867       0.10605573
Si      14.00603415      12.69028661      14.61154440       0.25406899       0.24863547       0.04062864
5
Lattice="27.25 0.0 0.0 0.0 27.25 0.0 0.0 0.0 27.25" Properties=species:S:1:pos:R:3:forces:R:3 energy=-43.39932748135083 bias_energy=-43.26187667141285 name=N pbc="T T T"
Si      12.49664031      14.44537326      15.03571972      -0.55139915      -0.06384997       0.26083647
Si      14.54211649      12.53756096      12.24430937      -0.02790378      -0.50450464      -0.31612596
Si      14.15007766      14.90550410      13.13331075       0.10438709       0.10062459      -0.01914630
Si      12.44742204      13.16652413      13.09334573       0.18331502       0.17239395       0.10381338
Si      14.48874349      13.07003755      14.61831443       0.29160082       0.29533607      -0.02937759
5
Lattice="27.25 0.0 0.0 0.0 27.25 0.0 0.0 0.0 27.25" Properties=species:S:1:pos:R:3:forces:R:3 energy=-43.388449223545635 bias_energy=-43.06252408438334 name=N pbc="T T T"
Si      12.48876033      14.44899931      15.02770151      -0.57718949      -0.05195805       0.25841545
Si      14.54634343      12.53038497      12.25014497       0.00562578      -0.50736369      -0.27439442
Si      14.13534586      14.90634552      13.12169704       0.12669984       0.09428300      -0.00234382
Si      12.45392052      13.14805898      13.10249225       0.19718466       0.14201213       0.09511589
Si      14.50062986      13.09121122      14.62296423       0.24767920       0.32302661      -0.07679311
5
Lattice="27.25 0.0 0.0 0.0 27.25 0.0 0.0 0.0 27.25" Properties=species:S:1:pos:R:3:forces:R:3 energy=-43.31965015419984 bias_energy=-43.11740909608561 name=N pbc="T T T"
Si      12.42677063      14.51798018      14.95466873      -0.57505195      -0.05168392       0.25878765
Si      14.57587082      12.48582752      12.28929322       0.00447105      -0.50850941      -0.27654413
Si      13.68256081      14.80432021      12.76985579       0.12562923       0.09662555       0.00095984
Si      12.66722727      12.68417660      13.59203729       0.19812370       0.14195445       0.09663123
Si      14.77257047      13.63269549      14.51914497       0.24682796       0.32161333      -0.07983459
5
Lattice="27.25 0.0 0.0 0.0 27.25 0.0 0.0 0.0 27.25" Properties=species:S:1:pos:R:3:forces:R:3 energy=-43.28964361703086 bias_energy=-42.91865963905264 name=N pbc="T T T"
Si      12.41591463      14.51811734      14.94828157      -0.58771875      -0.04051436       0.25291119
Si      14.57190211      12.48081067      12.28942905      -0.00480204      -0.48191462      -0.29529726
Si      13.67083738      14.80152268      12.76484264       0.15480421       0.09480111       0.02273203
Si      12.68235281      12.67043585      13.61314644       0.22744824       0.13502060       0.14410178
Si      14.78399307      13.65411346      14.50930029       0.21026834       0.29260727      -0.12444774
5
Lattice="27.25 0.0 0.0 0.0 27.25 0.0 0.0 0.0 27.25" Properties=species:S:1:pos:R:3:forces:R:3 energy=-43.26318766509732 bias_energy=-43.03132011815431 name=N pbc="T T T"
Si      12.34862247      14.53911610      14.86017101      -0.59036058      -0.03798826       0.25050815
Si      14.57961234      12.45967725      12.32230637      -0.00476588      -0.48071982      -0.29499504
Si      13.19325166      14.47455372      12.55443124       0.15292030       0.09630302       0.02565088
Si      13.14529368      12.47307730      14.16959481       0.22940517       0.13674622       0.14622967
Si      14.85821986      14.17857563      14.21849657       0.21280099       0.28565884      -0.12739366
5
Lattice="27.25 0.0 0.0 0.0 27.25 0.0 0.0 0.0 27.25" Properties=species:S:1:pos:R:3:forces:R:3 energy=-43.152638931327886 bias_energy=-42.98199974854902 name=N pbc="T T T"
Si      12.39427651      14.55158312      14.88354979      -0.59621649      -0.06058273       0.22928994
Si      14.46685146      12.36840445      12.34136963      -0.03431794      -0.46585283      -0.30591890
Si      12.78467342      14.06989734      12.57616188       0.18902816       0.11927682       0.05332029
Si      13.67754966      12.60471067      14.57717522       0.26504554       0.19207041       0.15108880
Si      14.80164895      14.53040443      13.74674348       0.17646073       0.21508833      -0.12778012
5
Lattice="27.25 0.0 0.0 0.0 27.25 0.0 0.0 0.0 27.25" Properties=species:S:1:pos:R:3:forces:R:3 energy=-43.06130876422748 bias_energy=-42.87522183523112 name=N pbc="T T T"
Si      12.24222007      14.47807975      14.79731655      -0.62624831      -0.10455697       0.24378297
Si      14.67224062      12.35096995      12.51917237      -0.00958592      -0.44834290      -0.27606469
Si      12.57691490      13.36505688      12.76760068       0.22613123       0.15657945       0.04133126
Si      14.22663758      13.09549128      14.80963623       0.23799623       0.24524481       0.07805806
Si      14.40698684      14.83540214      13.23127417       0.17170677       0.15107561      -0.08710760
5
Lattice="27.25 0.0 0.0 0.0 27.25 0.0 0.0 0.0 27.25" Properties=species:S:1:pos:R:3:forces:R:3 energy=-43.03660812409244 bias_energy=-42.67501695651434 name=N pbc="T T T"
Si      12.24098834      14.46433989      14.80796351      -0.57161250      -0.12504590       0.31385949
Si      14.66572747      12.35304024      12.51572214      -0.02083555      -0.46468787      -0.30351049
Si      12.57404216      13.38322549      12.76306891       0.20848522       0.23567807       0.02371163
Si      14.22892079      13.09135002      14.80919752       0.14414632       0.24075375       0.00928489
Si      14.41532123      14.83304436      13.22904791       0.23981650       0.11330195      -0.04334553
5
Lattice="27.25 0.0 0.0 0.0 27.25 0.0 0.0 0.0 27.25" Properties=species:S:1:pos:R:3:forces:R:3 energy=-42.760431003602804 bias_energy=-42.6174942452541 name=N pbc="T T T"
Si      12.26129976      14.29518000      14.95877160      -0.57611303      -0.12646931       0.31420966
Si      14.46523835      12.45885407      12.27791707      -0.01804866      -0.45823224      -0.30005369
Si      12.71049498      14.05642315      12.63959481       0.20836243       0.23537544       0.02926416
Si      13.93055126      12.66446244      14.60697036       0.13801727       0.24185402       0.00937836
Si      14.75741566      14.65008033      13.64174616       0.24778200       0.10747208      -0.05279849
5
Lattice="27.25 0.0 0.0 0.0 27.25 0.0 0.0 0.0 27.25" Properties=species:S:1:pos:R:3:forces:R:3 energy=-42.59403285770798 bias_energy=-42.45986135158274 name=N pbc="T T T"
Si      12.15741458      14.38192405      14.81623177      -0.62306116      -0.09864529       0.24297798
Si      14.53659420      12.28885833      12.53565748      -0.00303682      -0.44592209      -0.24733224
Si      12.65989437      13.75908040      12.62008945       0.22427335       0.14624030       0.08375738
Si      14.06785687      12.99288049      14.82250360       0.14695182       0.28683345       0.06001027
Si      14.70323997      14.70225673      13.33051770       0.25487281       0.11149364      -0.13941339
