5
Lattice="27.25 0.0 0.0 0.0 27.25 0.0 0.0 0.0 27.25" Properties=species:S:1:pos:R:3:forces:R:3 energy=-43.72152655680241 bias_energy=0 name=N0 pbc="T T T"
Si      13.66487743      14.76771855      12.07498916       0.03503854      -0.23813817       0.38120672
Si      13.58597256      12.48038193      15.17422225      -0.04054543       0.36811502      -0.68135120
Si      12.22027697      13.44635177      13.45751909       0.08515495      -0.10903828      -0.17677903
Si      14.11470507      14.69708725      14.42685891      -0.07429482      -0.08629729       0.32202303
Si      14.53916796      12.73346050      12.99141059      -0.00535325       0.06535872       0.15490047
5
Lattice="27.25 0.0 0.0 0.0 27.25 0.0 0.0 0.0 27.25" Properties=species:S:1:pos:R:3:forces:R:3 energy=-43.72140395279334 bias_energy=-43.721155042964455 name=N pbc="T T T"
Si      13.80252076      14.90236532      12.19210050       0.14974895      -0.07491357       0.40169233
Si      13.44591796      12.34974261      15.05848881      -0.16098569       0.14827345      -0.57777867
Si      12.27582915      13.38010500      13.23694680       0.02077513      -0.14819955      -0.35874955
Si      13.92323263      14.64828735      14.57257908      -0.19789003      -0.03920282       0.41837632
Si      14.67749949      12.84449972      13.06488480       0.18835163       0.11404249       0.11645959
5
Lattice="27.25 0.0 0.0 0.0 27.25 0.0 0.0 0.0 27.25" Properties=species:S:1:pos:R:3:forces:R:3 energy=-43.72140262509748 bias_energy=-43.72120089746237 name=N pbc="T T T"
Si      13.93123950      15.03154220      12.34471749       0.13179520      -0.06725711       0.42187227
Si      13.31614275      12.21812302      14.90400669      -0.17314914       0.12939188      -0.60530996
Si      12.35198278      13.37117814      13.03673446       0.06303602      -0.09895157      -0.34802264
Si      13.74701523      14.56776438      14.68957580      -0.18595205      -0.08254938       0.38462517
Si      14.77861974      12.93639226      13.14996556       0.16426997       0.11936617       0.14683517
5
Lattice="27.25 0.0 0.0 0.0 27.25 0.0 0.0 0.0 27.25" Properties=species:S:1:pos:R:3:forces:R:3 energy=-43.72144249558288 bias_energy=-43.72129466987403 name=N pbc="T T T"
Si      14.05082476      15.15300331      12.53224038       0.11291470      -0.07182365       0.43665898
Si      13.19820337      12.09689102      14.71713083      -0.17357851       0.12669867      -0.63421829
Si      12.44454856      13.40682841      12.85641266       0.09319559      -0.05302125      -0.32470870
Si      13.58258990      14.46334500      14.77941216      -0.17004538      -0.11417452       0.35117324
Si      14.84883341      13.00493226      13.23980398       0.13751360       0.11232076       0.17109477
5
Lattice="27.25 0.0 0.0 0.0 27.25 0.0 0.0 0.0 27.25" Properties=species:S:1:pos:R:3:forces:R:3 energy=-43.72144696122322 bias_energy=-43.7213175720202 name=N pbc="T T T"
Si      14.15597137      15.25540572      12.74643624       0.09426690      -0.08454829       0.44665181
Si      13.09398747      11.99429490      14.50346974      -0.16689151       0.13657547      -0.66070691
Si      12.54753166      13.48034017      12.70299053       0.11599164      -0.01397670      -0.29381439
Si      13.43261903      14.34487017      14.84237599      -0.15349998      -0.13641551       0.31916453
Si      14.89489047      13.05008905      13.32972750       0.11013296       0.09836504       0.18870496
5
Lattice="27.25 0.0 0.0 0.0 27.25 0.0 0.0 0.0 27.25" Properties=species:S:1:pos:R:3:forces:R:3 energy=-43.721483966134564 bias_energy=-43.72133813692012 name=N pbc="T T T"
Si      14.24482853      15.33075207      12.97897254       0.07753117      -0.10121326       0.45215501
Si      13.00649167      11.91847271      14.27282562      -0.15560222       0.15594685      -0.68281793
Si      12.65507183      13.58195384      12.58097292       0.13215255       0.01619370      -0.25903378
Si      13.29703248      14.22076356      14.87892424      -0.13825203      -0.15163555       0.29010823
Si      14.92157549      13.07305782      13.41330467       0.08417053       0.08070826       0.19958846
5
Lattice="27.25 0.0 0.0 0.0 27.25 0.0 0.0 0.0 27.25" Properties=species:S:1:pos:R:3:forces:R:3 energy=-43.72151978249522 bias_energy=-43.72127700471936 name=N pbc="T T T"
Si      14.31529257      15.37570093      13.21556516       0.06235829      -0.12054924       0.45403631
Si      12.93616631      11.87325404      14.03722635      -0.14153227       0.18249887      -0.69987133
Si      12.76177372      13.69972881      12.49250934       0.14277220       0.03742125      -0.22296907
Si      13.17822488      14.09922573      14.89295700      -0.12453447      -0.16127813       0.26456785
Si      14.93354252      13.07709048      13.48674214       0.06093624       0.06190726       0.20423625
5
Lattice="27.25 0.0 0.0 0.0 27.25 0.0 0.0 0.0 27.25" Properties=species:S:1:pos:R:3:forces:R:3 energy=-43.7214928945381 bias_energy=-43.72108547274525 name=N pbc="T T T"
Si      14.36974412      15.39253981      13.45019332       0.04912196      -0.14090952       0.45358089
Si      12.88113786      11.85569265      13.80295095      -0.12606559       0.21326577      -0.71116022
Si      12.86663641      13.82646708      12.43424385       0.14981718       0.05083671      -0.18823266
Si      13.07323147      13.98380978      14.88894791      -0.11283591      -0.16741765       0.24192635
Si      14.93425014      13.06649068      13.54866397       0.03996237       0.04422468       0.20388564
5
Lattice="27.25 0.0 0.0 0.0 27.25 0.0 0.0 0.0 27.25" Properties=species:S:1:pos:R:3:forces:R:3 energy=-43.72146996137187 bias_energy=-43.721045317556154 name=N pbc="T T T"
Si      14.41107210      15.38133492      13.68742573       0.03748949      -0.16117316       0.45110689
Si      12.83874748      11.86694700      13.56566381      -0.11040178       0.24636725      -0.71742032
Si      12.97099055      13.96008032      12.40240032       0.15418436       0.05716577      -0.15571705
Si      12.97685343      13.87213635      14.86846281      -0.10264328      -0.17074012       0.22218742
Si      14.92733644      13.04450142      13.60104733       0.02137122       0.02838026       0.19984306
5
Lattice="27.25 0.0 0.0 0.0 27.25 0.0 0.0 0.0 27.25" Properties=species:S:1:pos:R:3:forces:R:3 energy=-43.72149436571582 bias_energy=-43.721310616019444 name=N pbc="T T T"
Si      14.44177104      15.34005790      13.93967329       0.02665014      -0.18202024       0.44705081
Si      12.80752101      11.90878849      13.31195477      -0.09412451       0.28159887      -0.71906848
Si      13.08346649      14.10614233      12.39662509       0.15661346       0.05874822      -0.12491070
Si      12.88108831      13.75951076      14.83187514      -0.09336697      -0.17242617       0.20413955
Si      14.91115314      13.01050053      13.64487171       0.00422789       0.01409932       0.19278882
5
Lattice="27.25 0.0 0.0 0.0 27.25 0.0 0.0 0.0 27.25" Properties=species:S:1:pos:R:3:forces:R:3 energy=-43.72150814517721 bias_energy=-43.72136497873008 name=N pbc="T T T"
Si      14.45903352      15.26565639      14.19316453       0.01609158      -0.20405129       0.44107407
Si      12.79017099      11.98375197      13.05802986      -0.07699831       0.32035813      -0.71619618
Si      13.19776068      14.25734773      12.42030173       0.15769378       0.05499215      -0.09461796
Si      12.78938927      13.65190163      14.77802257      -0.08409978      -0.17210798       0.18702914
Si      14.88864554      12.96634228      13.67548130      -0.01268727       0.00080899       0.18271093
5
Lattice="27.25 0.0 0.0 0.0 27.25 0.0 0.0 0.0 27.25" Properties=species:S:1:pos:R:3:forces:R:3 energy=-43.72149832337134 bias_energy=-43.72128562877789 name=N pbc="T T T"
Si      14.46250763      15.16073879      14.43204670       0.00621906      -0.22680715       0.43355032
Si      12.78675429      12.08866610      12.81904755      -0.05963038       0.36099921      -0.70853170
Si      13.30811392      14.40103291      12.47200634       0.15703635       0.04556536      -0.06611392
Si      12.70679953      13.55671734      14.71131601      -0.07514876      -0.16976731       0.17123240
Si      14.86082464      12.91784484      13.69058340      -0.02847627      -0.00999011       0.16986290
5
Lattice="27.25 0.0 0.0 0.0 27.25 0.0 0.0 0.0 27.25" Properties=species:S:1:pos:R:3:forces:R:3 energy=-43.721489076337846 bias_energy=-43.7209667971513 name=N pbc="T T T"
Si      14.45423745      15.03230320      14.64541132      -0.00260590      -0.24889411       0.42502376
Si      12.79600489      12.21474160      12.60816332      -0.04317913       0.40057716      -0.69658607
Si      13.41084724      14.53184759      12.54607644       0.15533825       0.03178912      -0.04132629
Si      12.63304859      13.47737466      14.63605361      -0.06676615      -0.16563253       0.15749729
Si      14.83086183      12.86873295      13.68929532      -0.04278706      -0.01783964       0.15539131
5
Lattice="27.25 0.0 0.0 0.0 27.25 0.0 0.0 0.0 27.25" Properties=species:S:1:pos:R:3:forces:R:3 energy=-43.721464809243336 bias_energy=-43.72094763123002 name=N pbc="T T T"
Si      14.43475604      14.87733235      14.84349663      -0.01018871      -0.26961441       0.41592188
Si      12.81542871      12.36904627      12.41016968      -0.02839583       0.43758141      -0.68129262
Si      13.51151438      14.65299166      12.64340285       0.15267934       0.01485518      -0.02131062
Si      12.56551734      13.40831928      14.55183467      -0.05913153      -0.16012729       0.14630660
Si      14.79778353      12.81731044      13.67609617      -0.05496327      -0.02269489       0.14037475
5
Lattice="27.25 0.0 0.0 0.0 27.25 0.0 0.0 0.0 27.25" Properties=species:S:1:pos:R:3:forces:R:3 energy=-43.72151403737868 bias_energy=-43.72113573369741 name=N pbc="T T T"
Si      14.40366168      14.69095464      15.02774272      -0.01711297      -0.29019444       0.40588579
Si      12.84591456      12.55679407      12.22451271      -0.01458805       0.47352869      -0.66217396
Si      13.61220154      14.76228190      12.76577480       0.14976098      -0.00605675      -0.00521165
Si      12.50267519      13.35076249      14.45748705      -0.05119629      -0.15291828       0.13715360
Si      14.76054704      12.76420691      13.64948272      -0.06686367      -0.02435922       0.12434622
5
Lattice="27.25 0.0 0.0 0.0 27.25 0.0 0.0 0.0 27.25" Properties=species:S:1:pos:R:3:forces:R:3 energy=-43.72151552681849 bias_energy=-43.72116598466693 name=N pbc="T T T"
Si      14.36104272      14.47142925      15.19035428      -0.02301182      -0.31118699       0.39548405
Si      12.88856322      12.77570024      12.06174243      -0.00218932       0.50745440      -0.63936783
Si      13.71451541      14.85777960      12.91491718       0.14665431      -0.03107481       0.00626510
Si      12.44219138      13.30828301      14.35294225      -0.04308766      -0.14283215       0.13057957
Si      14.71868727      12.71180790      13.60504385      -0.07836551      -0.02236045       0.10703910
5
Lattice="27.25 0.0 0.0 0.0 27.25 0.0 0.0 0.0 27.25" Properties=species:S:1:pos:R:3:forces:R:3 energy=-43.72146528614716 bias_energy=-43.721233577677104 name=N pbc="T T T"
Si      14.30574212      14.21184083      15.32759656      -0.02792815      -0.33255576       0.38387028
Si      12.94409855      13.03473617      11.92431799       0.00826622       0.53925503      -0.61262073
Si      13.82139725      14.93386902      13.09520653       0.14389540      -0.06125674       0.01233144
Si      12.38431196      13.28433182      14.23774602      -0.03385105      -0.12948821       0.12739637
Si      14.66945011      12.66022217      13.54013292      -0.09038243      -0.01595432       0.08902263
5
Lattice="27.25 0.0 0.0 0.0 27.25 0.0 0.0 0.0 27.25" Properties=species:S:1:pos:R:3:forces:R:3 energy=-43.72147996531493 bias_energy=-43.72133573199442 name=N pbc="T T T"
Si      14.23735480      13.90563843      15.42923547      -0.03067889      -0.35299502       0.37163495
Si      13.01268327      13.34067873      11.82219775       0.01483425       0.56651058      -0.58260567
Si      13.93625924      14.97954993      13.30814964       0.14230716      -0.09781533       0.00881303
Si      12.32975023      13.28865184      14.11609008      -0.02333027      -0.11146672       0.13110480
Si      14.60895245      12.61048108      13.44932707      -0.10313225      -0.00423351       0.07105288
5
Lattice="27.25 0.0 0.0 0.0 27.25 0.0 0.0 0.0 27.25" Properties=species:S:1:pos:R:3:forces:R:3 energy=-43.721506626873136 bias_energy=-43.72126052529626 name=N pbc="T T T"
Si      14.16199094      13.56660881      15.47410908      -0.02900565      -0.37107523       0.36047677
Si      13.08731138      13.68117576      11.77722187       0.01385108       0.58233391      -0.55233014
Si      14.06434291      14.97905385      13.54056313       0.14387995      -0.14108586      -0.01211622
Si      12.28262641      13.33486206      14.00442053      -0.01165579      -0.08477461       0.14861506
Si      14.52872837      12.56329952      13.32868539      -0.11706958       0.01460178       0.05535452
5
Lattice="27.25 0.0 0.0 0.0 27.25 0.0 0.0 0.0 27.25" Properties=species:S:1:pos:R:3:forces:R:3 energy=-43.72147801035515 bias_energy=-43.721129668887244 name=N pbc="T T T"
Si      14.08610934      13.17687726      15.44080820      -0.01858263      -0.37503766       0.35501673
Si      13.16328299      14.07131805      11.80969042      -0.00294082       0.57067372      -0.53136982
Si      14.24443103      14.89997685      13.78341547       0.15292303      -0.19039415      -0.06517712
Si      12.24394373      13.46270043      13.93362860       0.00315936      -0.04657489       0.19107849
Si      14.38723291      12.51412741      13.15745731      -0.13455894       0.04133298       0.05045173
5
Lattice="27.25 0.0 0.0 0.0 27.25 0.0 0.0 0.0 27.25" Properties=species:S:1:pos:R:3:forces:R:3 energy=-43.72146544748146 bias_energy=-43.72131196842934 name=N pbc="T T T"
Si      14.06486208      12.78520079      15.30232830       0.01080718      -0.32832834       0.36586743
Si      13.18899258      14.46330921      11.94674929      -0.04772864       0.48465571      -0.53895626
Si      14.60080788      14.63177358      13.87531416       0.16787390      -0.23271253      -0.18384689
Si      12.28272558      13.81231022      14.06759592       0.02737310       0.00691564       0.27860177
Si      13.98761187      12.43240621      12.93301233      -0.15832554       0.06946951       0.07833395
