5
Lattice="27.25 0.0 0.0 0.0 27.25 0.0 0.0 0.0 27.25" Properties=species:S:1:pos:R:3:forces:R:3 energy=-43.721516348682194 bias_energy=0 name=N0 pbc="T T T"
Si      12.25098995      13.73699133      13.98702080       0.13055979       0.10803319      -0.39694116
Si      14.37857052      14.79400612      13.31440636       0.01310446       0.16389876       0.37477314
Si      14.12834812      13.79388873      15.47646556      -0.00950815       0.05028496      -0.42484770
Si      13.12346499      13.45817317      11.77429170       0.09169531      -0.41085904       0.47562460
Si      14.24362642      12.34194065      13.57281559      -0.22585142       0.08864213      -0.02860888
5
Lattice="27.25 0.0 0.0 0.0 27.25 0.0 0.0 0.0 27.25" Properties=species:S:1:pos:R:3:forces:R:3 energy=-43.72152220427642 bias_energy=-43.72071749368747 name=N pbc="T T T"
Si      12.22633807      13.84594717      13.78977173      -0.00693172       0.26841249      -0.41357300
Si      14.48037939      14.70475933      13.25488150       0.01570313       0.21262998       0.28747167
Si      13.90819203      14.03778375      15.48470325      -0.05197566       0.08561196      -0.30727877
Si      13.33991334      13.21286515      11.76442556       0.22689971      -0.56644670       0.32695410
Si      14.17017718      12.32364460      13.83121796      -0.18369545      -0.00020772       0.10642600
