5
Lattice="27.25 0.0 0.0 0.0 27.25 0.0 0.0 0.0 27.25" Properties=species:S:1:pos:R:3:forces:R:3 name=N0 pbc="T T T"
Si      12.74338903      12.54310887      14.58341273      -0.45293074      -0.12449961       0.27762354
Si      15.49383270      14.42663046      12.49967517       0.27511594       0.02117479      -0.12300336
Si      15.07727927      12.86344787      14.04013008       0.13058594      -0.03482333       0.05006075
Si      11.31891979      13.84915440      13.46227044       0.43778890      -0.26074927       0.03068164
Si      13.49157921      14.44265840      13.53951158      -0.32253659       0.47362202      -0.03608353
5
Lattice="27.25 0.0 0.0 0.0 27.25 0.0 0.0 0.0 27.25" Properties=species:S:1:pos:R:3:forces:R:3 name=N pbc="T T T"
Si      12.74338903      12.54310887      14.58341273      -0.40577898      -0.35359719       0.25575931
Si      15.49383270      14.42663046      12.49967517       0.22407288      -0.06743225      -0.12373857
Si      15.07727927      12.86344787      14.04013008       0.09156971       0.05370277      -0.04067032
Si      11.31891979      13.84915440      13.46227044       0.41093230      -0.19206704       0.13922436
Si      13.49157921      14.44265840      13.53951158      -0.17847418       0.55196694      -0.01582651
5
Lattice="27.25 0.0 0.0 0.0 27.25 0.0 0.0 0.0 27.25" Properties=species:S:1:pos:R:3:forces:R:3 name=N pbc="T T T"
Si      12.75709259      12.54500992      14.61141987      -0.36813493      -0.37057009       0.28101464
Si      15.48873843      14.42542758      12.49874413       0.22004546      -0.06447036      -0.12687303
Si      15.09385994      12.86844419      14.05242449       0.09435292       0.05385428      -0.03901857
Si      11.33290150      13.83648881      13.47119547       0.41271573      -0.19831460       0.14258343
Si      13.50075902      14.44710638      13.56417325      -0.17490371       0.55273002      -0.00959533
5
Lattice="27.25 0.0 0.0 0.0 27.25 0.0 0.0 0.0 27.25" Properties=species:S:1:pos:R:3:forces:R:3 name=N pbc="T T T"
Si      14.72882429      12.81917119      16.86836629      -0.12878992       0.12087182       0.37946030
Si      15.87705905      14.38794459      13.45152795       0.18614580      -0.08993597      -0.16312855
Si      16.42855933      13.97366347      15.57989314       0.06242590      -0.06035679       0.02915037
Si      12.82965149      12.38943357      15.77850550       0.46287751      -0.36678407       0.09800387
Si      14.23200997      13.93624042      14.92644156      -0.19593328       0.56028803      -0.19070993
5
Lattice="27.25 0.0 0.0 0.0 27.25 0.0 0.0 0.0 27.25" Properties=species:S:1:pos:R:3:forces:R:3 name=N pbc="T T T"
Si      14.91655650      13.64202239      17.16086766      -0.34000013       0.20367925       0.27283873
Si      16.41024096      14.24074056      13.57122114       0.20894379      -0.03958142      -0.08827340
Si      16.36941102      14.92869747      15.69845860       0.10242425      -0.06306173       0.07407811
Si      13.82097431      11.96973353      16.16276695       0.45183689      -0.16227532       0.22192736
Si      14.68838535      13.60612295      14.87676878      -0.27678771       0.57084189      -0.11527676
5
Lattice="27.25 0.0 0.0 0.0 27.25 0.0 0.0 0.0 27.25" Properties=species:S:1:pos:R:3:forces:R:3 name=N pbc="T T T"
Si      14.75000108      14.65090587      17.51330181      -0.47079309       0.14835393       0.19969844
Si      16.84592419      14.80451229      14.19221909       0.20044388       0.01271721      -0.07436915
Si      16.08614389      15.94098417      15.95613856       0.12191638      -0.03070256       0.09975445
Si      14.41585535      12.51586802      16.94776160       0.38016023      -0.02659763       0.25188534
Si      15.11446096      13.95358208      15.35675687      -0.42208388       0.50492671      -0.05528852
5
Lattice="27.25 0.0 0.0 0.0 27.25 0.0 0.0 0.0 27.25" Properties=species:S:1:pos:R:3:forces:R:3 name=N pbc="T T T"
Si      14.38225906      15.44562716      17.93740591      -0.50964058       0.11903147       0.18101597
Si      16.66292764      15.53785428      14.73813156       0.19961317       0.02794230      -0.07785841
Si      15.64382124      16.73280050      16.32889780       0.13012841      -0.01600769       0.10587084
Si      14.39311169      13.23551388      17.60669101       0.35735115       0.01473402       0.24517260
Si      14.98346371      14.58320090      15.89695444      -0.45862964       0.46741890      -0.03737229
5
Lattice="27.25 0.0 0.0 0.0 27.25 0.0 0.0 0.0 27.25" Properties=species:S:1:pos:R:3:forces:R:3 name=N pbc="T T T"
Si      13.98096478      16.14351857      18.33491137      -0.53498042       0.09559378       0.17412736
Si      16.37516203      16.22687690      15.22216592       0.19957703       0.03797337      -0.08226843
Si      15.18310265      17.43238481      16.67935778       0.13363552      -0.00358908       0.10685203
Si      14.22320733      13.92923384      18.18645485       0.33960893       0.03995975       0.23527170
Si      14.74574504      15.19903555      16.39400214      -0.47393203       0.44678423      -0.02227559
5
Lattice="27.25 0.0 0.0 0.0 27.25 0.0 0.0 0.0 27.25" Properties=species:S:1:pos:R:3:forces:R:3 name=N pbc="T T T"
Si      13.55822447      16.80367487      18.72267376      -0.55189397       0.07755162       0.17015707
Si      16.03526141      16.89177249      15.67504319       0.19914898       0.04529086      -0.08581823
Si      14.70853132      18.08098441      17.02273566       0.13617320       0.00786100       0.10690085
Si      13.97462902      14.60670695      18.71159248       0.32437375       0.05667902       0.22637686
Si      14.45492070      15.80803977      16.86122676      -0.48341613       0.43340625      -0.01126224
5
Lattice="27.25 0.0 0.0 0.0 27.25 0.0 0.0 0.0 27.25" Properties=species:S:1:pos:R:3:forces:R:3 name=N pbc="T T T"
Si      13.14481243      17.40259172      19.07839934      -0.56446908       0.06330985       0.17030645
Si      15.68128141      17.50169230      16.08026295       0.19835220       0.05032206      -0.08899302
Si      14.25953171      18.67120857      17.34330394       0.13693232       0.01874280       0.10538237
Si      13.68902512      15.23759039      19.17318347       0.31191341       0.06952666       0.21732504
Si      14.13847157      16.38353806      17.28542287      -0.48685984       0.42655952      -0.00444315
5
Lattice="27.25 0.0 0.0 0.0 27.25 0.0 0.0 0.0 27.25" Properties=species:S:1:pos:R:3:forces:R:3 name=N pbc="T T T"
Si      12.73620524      17.97207235      19.41117518      -0.57386662       0.05070242       0.17011078
Si      15.32290808      18.08616626      16.45666248       0.19828006       0.05487096      -0.09323983
Si      13.81989270      19.23131212      17.64863259       0.13557279       0.02334043       0.10398560
Si      13.37728644      15.84103575      19.59560814       0.29945663       0.07829730       0.20951872
Si      13.81164493      16.93552100      17.67294056      -0.48929387       0.42341280       0.00466178
5
Lattice="27.25 0.0 0.0 0.0 27.25 0.0 0.0 0.0 27.25" Properties=species:S:1:pos:R:3:forces:R:3 name=N pbc="T T T"
Si      12.31437171      18.52940393      19.73392122      -0.58191423       0.03955951       0.17047741
Si      14.94772147      18.65855326      16.81997800       0.19739455       0.05843206      -0.09630099
Si      13.37829021      19.77739586      17.95011123       0.13475312       0.03004437       0.10257810
Si      13.04121645      16.43382127      19.99775565       0.28730885       0.08537727       0.20241495
Si      13.46521564      17.48544453      18.04884492      -0.49159245       0.42062290       0.01086157
5
Lattice="27.25 0.0 0.0 0.0 27.25 0.0 0.0 0.0 27.25" Properties=species:S:1:pos:R:3:forces:R:3 name=N pbc="T T T"
Si      11.89263085      19.06820447      20.04285137      -0.58856065       0.02973992       0.17073158
Si      14.56727819      19.21312265      17.16712475       0.19645249       0.06136359      -0.09984561
Si      12.94007486      20.30507050      18.24223708       0.13350259       0.03500863       0.10139019
Si      12.68549587      17.00729604      20.37425824       0.27596237       0.09088006       0.19602823
Si      13.10627812      18.02103553      18.40359736      -0.49304482       0.41916282       0.01654532
5
Lattice="27.25 0.0 0.0 0.0 27.25 0.0 0.0 0.0 27.25" Properties=species:S:1:pos:R:3:forces:R:3 name=N pbc="T T T"
Si      11.46702412      19.59220389      20.33991599      -0.59396833       0.02133803       0.17135364
Si      14.17957010      19.75147061      17.49906501       0.19535390       0.06361219      -0.10291355
Si      12.50535513      20.81931373      18.52668181       0.13193761       0.03953101       0.10012184
Si      12.31575179      17.56388095      20.72987116       0.26504643       0.09495996       0.19022441
Si      12.73689494      18.54544232      18.74228782      -0.49426969       0.41879043       0.02117739
5
Lattice="27.25 0.0 0.0 0.0 27.25 0.0 0.0 0.0 27.25" Properties=species:S:1:pos:R:3:forces:R:3 name=N pbc="T T T"
Si      11.02602899      20.12130035      20.63487769      -0.59905870       0.01392976       0.17115681
Si      13.77341121      20.29248526      17.82867516       0.19395636       0.06530534      -0.10605015
Si      12.06024592      21.33616130      18.81358037       0.13133415       0.04448824       0.09927832
Si      11.92296487      18.12202460      21.07809703       0.25511108       0.09758524       0.18552798
Si      12.34336519      19.07561132      19.07530244      -0.49518462       0.41780805       0.02507793
5
Lattice="27.25 0.0 0.0 0.0 27.25 0.0 0.0 0.0 27.25" Properties=species:S:1:pos:R:3:forces:R:3 name=N pbc="T T T"
Si      10.63018087      20.55264864      20.86877504      -0.60212271       0.00563545       0.17407964
Si      13.41619855      20.73619998      18.08928526       0.19248266       0.06650136      -0.10524663
Si      11.69653865      21.77816806      19.06534385       0.12950215       0.04912953       0.09726137
Si      11.58505284      18.59250636      21.36500574       0.24437575       0.10046339       0.17907964
Si      12.00100108      19.52252845      19.35193713      -0.49916711       0.41719346       0.02862705
5
Lattice="27.25 0.0 0.0 0.0 27.25 0.0 0.0 0.0 27.25" Properties=species:S:1:pos:R:3:forces:R:3 name=N pbc="T T T"
Si       9.81406153      20.73310177      20.55906891      -0.62876577      -0.10728951       0.14191787
Si      13.10587598      21.60281190      18.58286619       0.16479119       0.06415798      -0.17294042
Si      10.97637484      22.15053371      18.97358467       0.09439056       0.08030519       0.10346967
Si      11.05544604      19.09389728      21.44168293       0.07307766       0.04750509       0.11543034
Si      11.74949765      20.07190312      19.53244244      -0.52135079       0.42979448       0.09113428
5
Lattice="27.25 0.0 0.0 0.0 27.25 0.0 0.0 0.0 27.25" Properties=species:S:1:pos:R:3:forces:R:3 name=N pbc="T T T"
Si       9.31413173      20.62590651      20.45527634      -0.60606129      -0.20306972       0.29110761
Si      12.26870973      22.45736660      18.59121780       0.13637956       0.05975794      -0.24317011
Si      10.09314531      22.48584647      19.09796563       0.10491501       0.04492597       0.10394618
Si      10.90159442      19.14970218      21.01568630       0.03793668      -0.05034858       0.10601192
Si      11.28920944      20.55238952      19.29255171      -0.48180851       0.29624922       0.25779957
5
Lattice="27.25 0.0 0.0 0.0 27.25 0.0 0.0 0.0 27.25" Properties=species:S:1:pos:R:3:forces:R:3 name=N pbc="T T T"
Si       8.88295416      19.87321406      20.77848079      -0.49147832      -0.30596897       0.26799494
Si      10.81881827      22.32428742      18.35838588       0.25263844       0.14137777      -0.03001113
Si       8.85729729      21.80807219      19.30009847       0.18761225       0.07270749      -0.01025312
Si      10.90333566      18.93050026      21.03767840       0.37540667       0.01049124       0.08293722
Si      10.54989664      20.27874852      19.25850276      -0.35963935       0.27154590       0.34162834
5
Lattice="27.25 0.0 0.0 0.0 27.25 0.0 0.0 0.0 27.25" Properties=species:S:1:pos:R:3:forces:R:3 name=N pbc="T T T"
Si       9.18247014      19.54541894      21.07475189      -0.45148729      -0.29656457       0.29401062
Si      10.99948810      22.55739718      19.23741851       0.04490404       0.16600916      -0.14900923
Si       9.05325060      21.53492809      19.65335860       0.12941382       0.05973101       0.01100736
Si      11.26390899      19.04901489      21.76309033       0.26241874      -0.03039467       0.16905831
Si      11.01059326      20.45830346      20.02976198      -0.45841456       0.45492802       0.18460452
5
Lattice="27.25 0.0 0.0 0.0 27.25 0.0 0.0 0.0 27.25" Properties=species:S:1:pos:R:3:forces:R:3 name=N pbc="T T T"
Si       9.16494215      19.53254473      21.08067111      -0.45323112      -0.29087695       0.28680416
Si      10.94824573      22.56038780      19.23132447       0.05630712       0.17805974      -0.11707211
Si       9.01337926      21.51777019      19.64789649       0.12899468       0.05686056       0.00610236
Si      11.25795822      19.05754545      21.75989722       0.28476216      -0.02281757       0.16064704
Si      10.98433202      20.47495417      20.04338769      -0.47093131       0.45182261       0.16089226
