5
Lattice="27.25 0.0 0.0 0.0 27.25 0.0 0.0 0.0 27.25" Properties=species:S:1:pos:R:3:forces:R:3 energy=-43.72139295072246 bias_energy=0 name=N0 pbc="T T T"
Si      14.02878607      14.78890268      12.90807111      -0.03224754       0.07745872      -0.21178070
Si      12.73212455      13.73732450      14.73040994       0.16493010      -0.17660644       0.29560121
Si      12.12588418      13.41618442      12.43213487      -0.12521008       0.21030291       0.58425166
Si      15.12464343      13.83983131      14.81658834      -0.18459573      -0.28233087      -0.37564246
Si      14.11356177      12.34275709      13.23779573       0.17712325       0.17117568      -0.29242970
5
Lattice="27.25 0.0 0.0 0.0 27.25 0.0 0.0 0.0 27.25" Properties=species:S:1:pos:R:3:forces:R:3 energy=-43.72145119995112 bias_energy=-43.7208306007016 name=N pbc="T T T"
Si      13.94288090      14.84112581      12.95640272      -0.07602038       0.08266449      -0.14976001
Si      12.86065450      13.65608282      14.82756193       0.22067628      -0.18920196       0.28912159
Si      12.00317506      13.48399852      12.59544193      -0.24107834       0.21299755       0.57946761
Si      15.24995022      13.76470149      14.65127404      -0.02512584      -0.24954028      -0.33598378
Si      14.06833931      12.37909136      13.09431938       0.12154828       0.14308020      -0.38284541
