5
Lattice="27.25 0.0 0.0 0.0 27.25 0.0 0.0 0.0 27.25" Properties=species:S:1:pos:R:3:forces:R:3 energy=-43.72149870188696 bias_energy=0 name=N0 pbc="T T T"
Si      14.09332261      14.92311520      12.28209400      -0.30026399      -0.14465019       0.29208898
Si      13.15834460      12.32411666      14.96642159       0.30080077       0.44180209      -0.29933358
Si      12.32959557      13.49122195      13.04354817      -0.22911468      -0.24052312       0.28048100
Si      13.84854390      14.59755851      14.64402580       0.32126690       0.05254223      -0.33091807
Si      14.69519332      12.78898767      13.18891045      -0.09268901      -0.10917101       0.05768167
5
Lattice="27.25 0.0 0.0 0.0 27.25 0.0 0.0 0.0 27.25" Properties=species:S:1:pos:R:3:forces:R:3 energy=-43.7214253168376 bias_energy=-43.72133785620786 name=N pbc="T T T"
Si      13.87949080      14.85093427      12.15923682      -0.42181565      -0.13495910       0.10694202
Si      13.37116594      12.39918097      15.09056307       0.35295273       0.37346534      -0.05904025
Si      12.25706067      13.46445606      13.25409025      -0.25502305      -0.23045234       0.33098467
Si      13.99740112      14.64777305      14.54294450       0.40949140       0.12414650      -0.28300901
Si      14.61988147      12.76265565      13.07816537      -0.08560543      -0.13220040      -0.09587743
5
Lattice="27.25 0.0 0.0 0.0 27.25 0.0 0.0 0.0 27.25" Properties=species:S:1:pos:R:3:forces:R:3 energy=-43.72152655680241 bias_energy=-43.72138234881196 name=N pbc="T T T"
Si      13.66487743      14.76771855      12.07498916      -0.42481445      -0.14049302       0.13439600
Si      13.58597256      12.48038193      15.17422225       0.36482463       0.38194214      -0.07781139
Si      12.22027697      13.44635177      13.45751909      -0.21276178      -0.21996206       0.33635015
Si      14.11470507      14.69708725      14.42685891       0.37987972       0.10963048      -0.31420402
Si      14.53916796      12.73346050      12.99141059      -0.10712812      -0.13111754      -0.07873074
