5
Lattice="27.25 0.0 0.0 0.0 27.25 0.0 0.0 0.0 27.25" Properties=species:S:1:pos:R:3:forces:R:3 energy=-43.721305478811836 bias_energy=0 name=N0 pbc="T T T"
Si      12.92898141      14.38895541      15.24790631       0.45316362      -0.08119944      -0.54764881
Si      14.32457496      12.86537582      12.00146791       0.05679118       0.27065335       0.17323485
Si      12.64355535      12.59262854      13.68525929      -0.15228870       0.06785402       0.22799308
Si      14.88963791      13.43962162      14.25867016      -0.29892406       0.14514141      -0.01427460
Si      13.33825037      14.83841861      12.93169634      -0.05874204      -0.40244934       0.16069547
5
Lattice="27.25 0.0 0.0 0.0 27.25 0.0 0.0 0.0 27.25" Properties=species:S:1:pos:R:3:forces:R:3 energy=-43.721320119954484 bias_energy=-43.72041127901188 name=N pbc="T T T"
Si      13.07647015      14.62243116      15.17870027       0.55213607       0.18315592      -0.38801397
Si      14.16571627      12.63120668      12.06695816       0.08569008       0.19878695       0.17766954
Si      12.75303622      12.56156935      13.99991714      -0.17238844      -0.05817928       0.32712426
Si      14.97233607      13.63157799      14.09286557      -0.14096312       0.06758309      -0.02088244
Si      13.15744129      14.67821483      12.78655886      -0.32447458      -0.39134668      -0.09589738
