5
Lattice="27.25 0.0 0.0 0.0 27.25 0.0 0.0 0.0 27.25" Properties=species:S:1:pos:R:3:forces:R:3 energy=-41.25039165423696 bias_energy=0 name=N0 pbc="T T T"
Si      14.46526615      13.08536454      12.25434692      -0.42632116       0.33582761       0.30803204
Si      12.37488735      15.11337074      14.90090095       0.53790997      -0.13402343      -0.07756347
Si      12.95371885      14.90881697      12.75301865       0.05976058       0.11435109       0.19023062
Si      15.08330645      11.86155752      14.01850274      -0.11216468      -0.08465635      -0.40920828
Si      13.24782120      13.15589022      14.19823073      -0.05918470      -0.23149893      -0.01149091
5
Lattice="27.25 0.0 0.0 0.0 27.25 0.0 0.0 0.0 27.25" Properties=species:S:1:pos:R:3:forces:R:3 energy=-41.24904327224436 bias_energy=-41.24856339379239 name=N pbc="T T T"
Si      14.36628641      13.15274205      12.18277678      -0.40356747       0.34278949       0.17257197
Si      12.57457213      15.09876965      15.07686616       0.54241751      -0.06793516       0.10804543
Si      12.94853128      14.99059834      12.87491763       0.06731424       0.13748400       0.17004689
Si      14.97845700      11.74215756      13.80241484      -0.11880402      -0.17387046      -0.46678567
Si      13.25715319      13.14073239      14.18802459      -0.08736026      -0.23846787       0.01612138
5
Lattice="27.25 0.0 0.0 0.0 27.25 0.0 0.0 0.0 27.25" Properties=species:S:1:pos:R:3:forces:R:3 energy=-41.250318701164744 bias_energy=-41.250313239566594 name=N pbc="T T T"
Si      14.15729161      13.20585019      12.07400481      -0.40483218       0.33331884       0.18335953
Si      12.82086909      15.04020809      15.28560248       0.55491836      -0.08695988       0.09144590
Si      13.01452055      15.09990952      13.05904850       0.06067563       0.12773634       0.17499032
Si      14.85299930      11.65444563      13.51642633      -0.12992527      -0.14534514      -0.46870640
Si      13.27931946      13.12458657      14.18991787      -0.08083654      -0.22875016       0.01891065
5
Lattice="27.25 0.0 0.0 0.0 27.25 0.0 0.0 0.0 27.25" Properties=species:S:1:pos:R:3:forces:R:3 energy=-41.249873321047616 bias_energy=-41.24950823886041 name=N pbc="T T T"
Si      14.01766163      13.27333302      12.01707779      -0.41570238       0.32023425       0.19103827
Si      13.04555437      14.98815037      15.41356786       0.56457849      -0.10898681       0.07332518
Si      13.02104117      15.14672674      13.18562672       0.06032795       0.11449652       0.18341527
Si      14.73711882      11.60652382      13.31932375      -0.14394541      -0.11062989      -0.46679611
Si      13.30362401      13.11026604      14.18940388      -0.06525865      -0.21511407       0.01901739
5
Lattice="27.25 0.0 0.0 0.0 27.25 0.0 0.0 0.0 27.25" Properties=species:S:1:pos:R:3:forces:R:3 energy=-41.24968956244686 bias_energy=-41.24940615231948 name=N pbc="T T T"
Si      13.85460423      13.33722635      11.97324802      -0.42094304       0.31270001       0.20242435
Si      13.27213727      14.92030800      15.51969124       0.57180331      -0.12429625       0.04972825
Si      13.04016618      15.18683258      13.31272367       0.05725856       0.10525604       0.18940609
Si      14.62036188      11.58418606      13.12555085      -0.15174159      -0.08481513      -0.45998206
Si      13.33773043      13.09644702      14.19378622      -0.05637723      -0.20884467       0.01842337
5
Lattice="27.25 0.0 0.0 0.0 27.25 0.0 0.0 0.0 27.25" Properties=species:S:1:pos:R:3:forces:R:3 energy=-41.24972863093197 bias_energy=-41.24928991655672 name=N pbc="T T T"
Si      13.68647798      13.40180981      11.94659985      -0.42656376       0.30621395       0.21550911
Si      13.49243479      14.84717125      15.59588262       0.57526470      -0.13759903       0.02378636
Si      13.06394642      15.21139499      13.43312638       0.05732083       0.09594325       0.19552540
Si      14.50818500      11.58453718      12.95088285      -0.15855403      -0.06065016      -0.45139590
Si      13.37395581      13.08008677      14.19850831      -0.04746774      -0.20390801       0.01657503
5
Lattice="27.25 0.0 0.0 0.0 27.25 0.0 0.0 0.0 27.25" Properties=species:S:1:pos:R:3:forces:R:3 energy=-41.25006707811176 bias_energy=-41.24975994768207 name=N pbc="T T T"
Si      13.50622542      13.46941792      11.94144492      -0.43095844       0.29971516       0.23012015
Si      13.71619208      14.76328211      15.64762877       0.57604027      -0.14865557      -0.00160192
Si      13.09076191      15.23078329      13.55357298       0.05887073       0.08760644       0.20202229
Si      14.39195514      11.59983008      12.78378535      -0.16486607      -0.03940276      -0.44216637
Si      13.41986545      13.06168660      14.19856798      -0.03908649      -0.19926327       0.01162585
5
Lattice="27.25 0.0 0.0 0.0 27.25 0.0 0.0 0.0 27.25" Properties=species:S:1:pos:R:3:forces:R:3 energy=-41.250280062688205 bias_energy=-41.25002850001211 name=N pbc="T T T"
Si      13.32205577      13.53954650      11.95854828      -0.43374444       0.29376284       0.24638627
Si      13.94060042      14.67338358      15.67420409       0.57433503      -0.15801573      -0.02880944
Si      13.12006452      15.24122090      13.67328186       0.06252655       0.07915200       0.20794331
Si      14.27171839      11.63038221      12.62544961      -0.17101341      -0.01866693      -0.43198918
Si      13.47056090      13.04046681      14.19351617      -0.03210374      -0.19623218       0.00646904
5
Lattice="27.25 0.0 0.0 0.0 27.25 0.0 0.0 0.0 27.25" Properties=species:S:1:pos:R:3:forces:R:3 energy=-41.25030201916333 bias_energy=-41.250049266611796 name=N pbc="T T T"
Si      13.14160133      13.61028481      11.99981766      -0.43446818       0.28772272       0.26470760
Si      14.16107805      14.58060259      15.67410852       0.57020096      -0.16576134      -0.05661330
Si      13.15158429      15.24230015      13.79115544       0.06825158       0.07057469       0.21360433
Si      14.14828983      11.67581477      12.47866098      -0.17723864       0.00111559      -0.42151503
Si      13.52244649      13.01599768      14.18125739      -0.02674571      -0.19365165      -0.00018360
5
Lattice="27.25 0.0 0.0 0.0 27.25 0.0 0.0 0.0 27.25" Properties=species:S:1:pos:R:3:forces:R:3 energy=-41.24980532291974 bias_energy=-41.24947206716041 name=N pbc="T T T"
Si      12.96964249      13.68182712      12.06201915      -0.43276645       0.28121793       0.28412799
Si      14.37096054      14.48761639      15.64668457       0.56395754      -0.17198241      -0.08423533
Si      13.18715515      15.23385567      13.90522363       0.07583638       0.06205732       0.21904047
Si      14.02687210      11.73263687      12.34739414      -0.18396274       0.02044815      -0.41107115
Si      13.57036971      12.98906395      14.16367851      -0.02306473      -0.19174101      -0.00786197
5
Lattice="27.25 0.0 0.0 0.0 27.25 0.0 0.0 0.0 27.25" Properties=species:S:1:pos:R:3:forces:R:3 energy=-41.24987147469932 bias_energy=-41.249724594286874 name=N pbc="T T T"
Si      12.79620702      13.75164943      12.14859667      -0.42915676       0.27526377       0.30336943
Si      14.58472364      14.38507950      15.59910245       0.55627811      -0.17723239      -0.11132061
Si      13.22760893      15.21946772      14.03255540       0.08513434       0.05373651       0.22425620
Si      13.88171913      11.80130952      12.21516266      -0.19054736       0.03772624      -0.39996010
Si      13.63474128      12.96749383      14.12958282      -0.02170833      -0.18949414      -0.01634492
5
Lattice="27.25 0.0 0.0 0.0 27.25 0.0 0.0 0.0 27.25" Properties=species:S:1:pos:R:3:forces:R:3 energy=-41.249801551272284 bias_energy=-41.24962233718682 name=N pbc="T T T"
Si      12.63996751      13.82306064      12.25612964      -0.42313303       0.26785170       0.32471904
Si      14.78542602      14.28723503      15.52581401       0.54682836      -0.18123046      -0.13874448
Si      13.27362021      15.19336162      14.15908741       0.09781228       0.04226237       0.22750038
Si      13.73207922      11.87927818      12.09656648      -0.19811679       0.05778510      -0.38851128
Si      13.69390704      12.94206452      14.08740245      -0.02339082      -0.18666871      -0.02496366
5
Lattice="27.25 0.0 0.0 0.0 27.25 0.0 0.0 0.0 27.25" Properties=species:S:1:pos:R:3:forces:R:3 energy=-41.249984528168504 bias_energy=-41.2499421667266 name=N pbc="T T T"
Si      12.49014673      13.90140465      12.39760303      -0.41594372       0.26094793       0.34449982
Si      14.99685582      14.17975315      15.41970445       0.53610068      -0.18432243      -0.16542510
Si      13.32823726      15.14910655      14.29686779       0.11272510       0.03129260       0.23036341
Si      13.55502620      11.98058303      11.98137721      -0.20474089       0.07600814      -0.37586604
Si      13.75473399      12.91415262      14.02944753      -0.02814117      -0.18392624      -0.03357209
5
Lattice="27.25 0.0 0.0 0.0 27.25 0.0 0.0 0.0 27.25" Properties=species:S:1:pos:R:3:forces:R:3 energy=-41.25005590382843 bias_energy=-41.25000931149902 name=N pbc="T T T"
Si      12.35661891      13.97407400      12.55769288      -0.40720325       0.25239504       0.36453182
Si      15.19135171      14.07246898      15.28683117       0.52332727      -0.18780020      -0.19227374
Si      13.39966745      15.09206212      14.43532997       0.13242438       0.01885896       0.23097016
Si      13.37339068      12.09969705      11.88725349      -0.21162387       0.09674217      -0.36126365
Si      13.80397126      12.88669785      13.95789248      -0.03692453      -0.18019597      -0.04196459
5
Lattice="27.25 0.0 0.0 0.0 27.25 0.0 0.0 0.0 27.25" Properties=species:S:1:pos:R:3:forces:R:3 energy=-41.2492114971206 bias_energy=-41.24898178109171 name=N pbc="T T T"
Si      12.24211763      14.02904352      12.72016281      -0.39751366       0.24503424       0.38258451
Si      15.34853601      13.96288016      15.14676208       0.50910208      -0.19073057      -0.21741080
Si      13.48289710      15.03825636      14.55105979       0.15522172       0.00527507       0.22851181
Si      13.21499949      12.22290226      11.82119520      -0.21786307       0.11773361      -0.34473675
Si      13.83644976      12.87191771      13.88582012      -0.04894706      -0.17731235      -0.04894877
5
Lattice="27.25 0.0 0.0 0.0 27.25 0.0 0.0 0.0 27.25" Properties=species:S:1:pos:R:3:forces:R:3 energy=-41.24971812739087 bias_energy=-41.24971663606707 name=N pbc="T T T"
Si      12.14150243      14.10532097      12.95801938      -0.38787671       0.24244278       0.39694893
Si      15.53701470      13.83253679      14.93738265       0.49542830      -0.19576496      -0.23969754
Si      13.60852700      14.92815818      14.69916537       0.17608109      -0.00686418       0.22136712
Si      12.96608803      12.40898920      11.75576124      -0.22290695       0.13438933      -0.32798754
Si      13.87186784      12.84999487      13.77467136      -0.06072573      -0.17420297      -0.05063097
5
Lattice="27.25 0.0 0.0 0.0 27.25 0.0 0.0 0.0 27.25" Properties=species:S:1:pos:R:3:forces:R:3 energy=-41.24972368861272 bias_energy=-41.24972231236121 name=N pbc="T T T"
Si      12.07335673      14.17547276      13.21681181      -0.37947783       0.23562762       0.40867868
Si      15.69448164      13.68529266      14.69038870       0.47894730      -0.20252203      -0.26452571
Si      13.76578726      14.79792376      14.83112832       0.20994007      -0.02452449       0.20629314
Si      12.71060673      12.62812244      11.73507353      -0.22369476       0.15986127      -0.30391685
Si      13.88076764      12.83818838      13.65159764      -0.08571478      -0.16844237      -0.04652927
5
Lattice="27.25 0.0 0.0 0.0 27.25 0.0 0.0 0.0 27.25" Properties=species:S:1:pos:R:3:forces:R:3 energy=-41.24937826094374 bias_energy=-41.24937401273865 name=N pbc="T T T"
Si      12.05388535      14.24185690      13.48683099      -0.37904703       0.23703687       0.41211450
Si      15.80833465      13.52403818      14.42301890       0.46015907      -0.21347325      -0.28632464
Si      13.94950095      14.64948048      14.92617834       0.24570800      -0.03991101       0.17973937
Si      12.45485285      12.87381668      11.76296838      -0.21377789       0.18167886      -0.27772998
Si      13.85842619      12.83580777      13.52600339      -0.11304215      -0.16533147      -0.02779926
5
Lattice="27.25 0.0 0.0 0.0 27.25 0.0 0.0 0.0 27.25" Properties=species:S:1:pos:R:3:forces:R:3 energy=-41.24919593273906 bias_energy=-41.24848354240915 name=N pbc="T T T"
Si      12.07117546      14.30213057      13.69109713      -0.39502177       0.24937483       0.40469766
Si      15.86784586      13.38074227      14.20039319       0.44352511      -0.22508005      -0.29767843
Si      14.10819977      14.52176463      14.96762460       0.27544811      -0.04704371       0.14025086
Si      12.26160356      13.08585106      11.82352596      -0.17935364       0.18955827      -0.25935817
Si      13.81617534      12.83451146      13.44235912      -0.14459780      -0.16680934       0.01208807
5
Lattice="27.25 0.0 0.0 0.0 27.25 0.0 0.0 0.0 27.25" Properties=species:S:1:pos:R:3:forces:R:3 energy=-41.24840815150901 bias_energy=-41.24836183145911 name=N pbc="T T T"
Si      12.16453862      14.40235278      13.99058729      -0.43637215       0.26675849       0.38379712
Si      15.88956703      13.12694243      13.84946610       0.43531398      -0.22533590      -0.28576307
Si      14.36940937      14.30445392      14.97906299       0.28231989      -0.03939474       0.10298448
Si      11.98794745      13.43735873      11.98409169      -0.12463795       0.17534960      -0.26610156
Si      13.71353753      12.85389213      13.32179194      -0.15662377      -0.17737745       0.06508303
5
Lattice="27.25 0.0 0.0 0.0 27.25 0.0 0.0 0.0 27.25" Properties=species:S:1:pos:R:3:forces:R:3 energy=-41.188626700452176 bias_energy=-41.15588833343521 name=N pbc="T T T"
Si      12.21503920      14.60738234      14.15460102      -0.56624230       0.27738902       0.27277029
Si      15.78025617      12.72058214      13.61864029       0.44266079      -0.14505001      -0.15359330
Si      14.65814200      14.16849603      14.88659571       0.21412259       0.03737814       0.06388578
Si      11.94535594      13.78576422      12.07086488       0.03816399       0.04054693      -0.37035290
Si      13.52620669      12.84277527      13.39429810      -0.12870507      -0.21026407       0.18729014
