5
Lattice="27.25 0.0 0.0 0.0 27.25 0.0 0.0 0.0 27.25" Properties=species:S:1:pos:R:3:forces:R:3 energy=-41.24996583419325 bias_energy=0 name=N0 pbc="T T T"
Si      12.28255285      14.60958711      13.96095846      -0.19122879      -0.05448310      -0.54457746
Si      15.82656219      12.90474473      13.78493999       0.00815143      -0.12621884       0.19707111
Si      14.48785442      14.28176248      14.93329337       0.17655696       0.29361336       0.17423702
Si      11.91619682      13.49324654      12.05920271       0.16363402      -0.43974051       0.30419302
Si      13.61183372      12.83565914      13.38660547      -0.15711363       0.32682909      -0.13092370
5
Lattice="27.25 0.0 0.0 0.0 27.25 0.0 0.0 0.0 27.25" Properties=species:S:1:pos:R:3:forces:R:3 energy=-41.24892058181699 bias_energy=-41.24873713204963 name=N pbc="T T T"
Si      12.30923696      14.67519231      13.71351675      -0.17943196       0.03982206      -0.54637188
Si      15.81912218      12.95333374      13.97249683      -0.04822231      -0.10116969       0.25807887
Si      14.43927474      14.48334556      14.84145368       0.16143171       0.32750285       0.12864015
Si      11.94295687      13.21292997      12.07222773       0.07470876      -0.56339803       0.16496041
Si      13.61440926      12.80019843      13.52530500      -0.00848620       0.29724280      -0.00530756
5
Lattice="27.25 0.0 0.0 0.0 27.25 0.0 0.0 0.0 27.25" Properties=species:S:1:pos:R:3:forces:R:3 energy=-41.25017225313746 bias_energy=-41.249965954829534 name=N pbc="T T T"
Si      12.31754537      14.68585258      13.48249713      -0.16162458       0.02479945      -0.56957215
Si      15.78819166      12.99074967      14.19692036      -0.05683235      -0.09046441       0.24203812
Si      14.42044804      14.69355849      14.66502055       0.15395859       0.30331574       0.11954676
Si      11.99666924      12.96047982      12.10202109       0.09523380      -0.54715797       0.20896677
Si      13.60214569      12.79435944      13.67854088      -0.03073546       0.30950718      -0.00097951
