5
Lattice="27.25 0.0 0.0 0.0 27.25 0.0 0.0 0.0 27.25" Properties=species:S:1:pos:R:3:forces:R:3 energy=-43.72150635237755 bias_energy=0 name=N0 pbc="T T T"
Si      13.38871584      14.61692787      14.62066976      -0.04374797      -0.05326365      -0.02715902
Si      12.55820750      13.18010333      12.79131575      -0.04209373      -0.07627847       0.14181738
Si      14.04325596      15.00527267      12.34928231       0.49534173       0.17193218       0.45351002
Si      13.20338092      12.24571383      14.89965041      -0.38788395      -0.02599022      -0.57814225
Si      14.93143978      13.07698230      13.46408177      -0.02161608      -0.01639984       0.00997387
5
Lattice="27.25 0.0 0.0 0.0 27.25 0.0 0.0 0.0 27.25" Properties=species:S:1:pos:R:3:forces:R:3 energy=-43.7214295640809 bias_energy=-43.721272480449755 name=N pbc="T T T"
Si      13.36004957      14.54275138      14.68365067      -0.06170339      -0.08065844       0.04986053
Si      12.60529294      13.32016582      12.67624531      -0.00864286       0.08320758      -0.03789501
Si      14.22097443      15.07826907      12.51078710       0.51588897       0.19080445       0.45462196
Si      13.03070701      12.17121620      14.73956424      -0.42816682      -0.12351961      -0.51340367
Si      14.90797606      13.01259753      13.51475269      -0.01737590      -0.06983398       0.04681619
5
Lattice="27.25 0.0 0.0 0.0 27.25 0.0 0.0 0.0 27.25" Properties=species:S:1:pos:R:3:forces:R:3 energy=-43.72133527932945 bias_energy=-43.72089574407092 name=N pbc="T T T"
Si      13.32632462      14.47286035      14.73197577      -0.06409794      -0.08823799       0.03939648
Si      12.66033450      13.45110481      12.58917736       0.01361619       0.09323631      -0.01926888
Si      14.37652746      15.12417645      12.67574898       0.49857057       0.16215357       0.47158800
Si      12.88195781      12.12300770      14.57425586      -0.42011319      -0.09984555      -0.53514397
Si      14.87985560      12.95385069      13.55384203      -0.02797563      -0.06730634       0.04342837
5
Lattice="27.25 0.0 0.0 0.0 27.25 0.0 0.0 0.0 27.25" Properties=species:S:1:pos:R:3:forces:R:3 energy=-43.721419464298904 bias_energy=-43.72106696320965 name=N pbc="T T T"
Si      13.28939768      14.39791581      14.77575676      -0.06610198      -0.09445936       0.02906028
Si      12.73265593      13.58775085      12.51307522       0.03133709       0.09910866      -0.00035531
Si      14.51842060      15.15009684      12.85763101       0.48272880       0.13703285       0.48501838
Si      12.73754451      12.09670745      14.39108260      -0.41032079      -0.07735317      -0.55363865
Si      14.84698129      12.89252905      13.58745440      -0.03764312      -0.06432898       0.03991529
5
Lattice="27.25 0.0 0.0 0.0 27.25 0.0 0.0 0.0 27.25" Properties=species:S:1:pos:R:3:forces:R:3 energy=-43.72143818003769 bias_energy=-43.72120083529418 name=N pbc="T T T"
Si      13.24368474      14.31862701      14.81167041      -0.06834622      -0.10077061       0.01845944
Si      12.81961950      13.73097528      12.45312280       0.04851843       0.10315997       0.02113576
Si      14.65152674      15.15357177      13.05748145       0.46571764       0.11148637       0.49603179
Si      12.60291479      12.09291956      14.18917975      -0.39888015      -0.05259700      -0.57173451
Si      14.80725423      12.82890637      13.61354559      -0.04700970      -0.06127873       0.03610753
5
Lattice="27.25 0.0 0.0 0.0 27.25 0.0 0.0 0.0 27.25" Properties=species:S:1:pos:R:3:forces:R:3 energy=-43.72142539577963 bias_energy=-43.72121556811877 name=N pbc="T T T"
Si      13.19034430      14.23671917      14.83836294      -0.07032049      -0.10640471       0.00676172
Si      12.91999536      13.87689046      12.41162654       0.06398445       0.10397087       0.04571719
Si      14.77016332      15.13299126      13.27040512       0.44782181       0.08607366       0.50498496
Si      12.48282485      12.11384813      13.97418936      -0.38528395      -0.02628226      -0.58918682
Si      14.76167218      12.76455098      13.63041603      -0.05620182      -0.05735756       0.03172295
5
Lattice="27.25 0.0 0.0 0.0 27.25 0.0 0.0 0.0 27.25" Properties=species:S:1:pos:R:3:forces:R:3 energy=-43.721130105677545 bias_energy=-43.72084186633913 name=N pbc="T T T"
Si      13.13327216      14.15603297      14.85314142      -0.07183833      -0.11176394      -0.00614002
Si      13.02652691      14.01699988      12.39327693       0.07763756       0.10137881       0.07313369
Si      14.87095261      15.08970271      13.48557481       0.42926315       0.06134471       0.51155622
Si      12.38267722      12.15730188      13.75423115      -0.36963190       0.00153334      -0.60543160
Si      14.71157110      12.70496256      13.63877568      -0.06543049      -0.05249292       0.02688171
5
Lattice="27.25 0.0 0.0 0.0 27.25 0.0 0.0 0.0 27.25" Properties=species:S:1:pos:R:3:forces:R:3 energy=-43.72110581939274 bias_energy=-43.720577999392134 name=N pbc="T T T"
Si      13.07127238      14.07752973      14.85881031      -0.07278536      -0.11599260      -0.01900677
Si      13.14043133      14.15214217      12.39301524       0.08735132       0.09500570       0.10114509
Si      14.94735614      15.02374434      13.69905811       0.41165145       0.03897601       0.51570149
Si      12.30527262      12.22438925      13.53841733      -0.35239855       0.02899423      -0.61961270
Si      14.66066754      12.64719451      13.63569901      -0.07381886      -0.04698333       0.02177289
5
Lattice="27.25 0.0 0.0 0.0 27.25 0.0 0.0 0.0 27.25" Properties=species:S:1:pos:R:3:forces:R:3 energy=-43.720897553392156 bias_energy=-43.720404292438474 name=N pbc="T T T"
Si      13.00318253      13.99854360      14.85357076      -0.07280128      -0.11998612      -0.03289363
Si      13.26244765      14.28393553      12.41489823       0.09434283       0.08533533       0.13118296
Si      15.00687426      14.93544802      13.91799195       0.39509317       0.01937140       0.51635166
Si      12.24626413      12.31541136      13.31644928      -0.33486649       0.05555304      -0.63160067
Si      14.60623143      12.59166149      13.62208978      -0.08176823      -0.04027364       0.01695968
5
Lattice="27.25 0.0 0.0 0.0 27.25 0.0 0.0 0.0 27.25" Properties=species:S:1:pos:R:3:forces:R:3 energy=-43.721380777394764 bias_energy=-43.72121782101939 name=N pbc="T T T"
Si      12.91831563      13.91375541      14.83015661      -0.07190102      -0.12355709      -0.04714940
Si      13.41142075      14.42487908      12.46345128       0.09691021       0.07149128       0.16222456
Si      15.04352083      14.80480111      14.17066402       0.37998554       0.00258929       0.51443270
Si      12.20689813      12.44645952      13.07726146      -0.31599436       0.08211025      -0.64168211
Si      14.54484466      12.53510487      13.58346663      -0.08900037      -0.03263372       0.01217425
5
Lattice="27.25 0.0 0.0 0.0 27.25 0.0 0.0 0.0 27.25" Properties=species:S:1:pos:R:3:forces:R:3 energy=-43.72145068603141 bias_energy=-43.72138484484684 name=N pbc="T T T"
Si      12.82429601      13.82318734      14.78760108      -0.06705644      -0.12857940      -0.06517884
Si      13.57364876      14.56581649      12.55551514       0.09310287       0.05089258       0.19871358
Si      15.05288043      14.62925716      14.43487832       0.36646168      -0.01073295       0.50687797
Si      12.19717913      12.62144905      12.81489118      -0.29560133       0.11001764      -0.65053720
Si      14.47699567      12.48528995      13.53211429      -0.09690677      -0.02159787       0.01012449
5
Lattice="27.25 0.0 0.0 0.0 27.25 0.0 0.0 0.0 27.25" Properties=species:S:1:pos:R:3:forces:R:3 energy=-43.721459368044705 bias_energy=-43.721408261548376 name=N pbc="T T T"
Si      12.71861903      13.72693872      14.71958435      -0.05936108      -0.13429797      -0.08396811
Si      13.74762039      14.70110393      12.69938944       0.07881347       0.02143032       0.23750121
Si      15.01924425      14.40048748      14.70487636       0.35795751      -0.01640869       0.49478100
Si      12.23058493      12.84985605      12.54563917      -0.27283318       0.13719907      -0.65633530
Si      14.40893140      12.44661382      13.45551068      -0.10457672      -0.00792273       0.00802121
5
Lattice="27.25 0.0 0.0 0.0 27.25 0.0 0.0 0.0 27.25" Properties=species:S:1:pos:R:3:forces:R:3 energy=-43.721432121320504 bias_energy=-43.72119900729853 name=N pbc="T T T"
Si      12.60700360      13.62036441      14.62171817      -0.04510368      -0.14294687      -0.10146205
Si      13.91363543      14.82286381      12.90588759       0.04373436      -0.01894024       0.27404705
Si      14.92720278      14.11436111      14.95639487       0.36629549      -0.00094469       0.47360555
Si      12.32247415      13.13357539      12.29406718      -0.25487292       0.15408225      -0.65604998
Si      14.35468403      12.43383527      13.34693220      -0.11005326       0.00874956       0.00985943
5
Lattice="27.25 0.0 0.0 0.0 27.25 0.0 0.0 0.0 27.25" Properties=species:S:1:pos:R:3:forces:R:3 energy=-43.72130562910076 bias_energy=-43.72018204341766 name=N pbc="T T T"
Si      12.46484361      13.39852683      14.42190142      -0.01208723      -0.15464983      -0.10873962
Si      14.03406924      14.95692266      13.32480136      -0.03364787      -0.07307751       0.28754959
Si      14.71425557      13.64598563      15.21678104       0.41817633       0.06853711       0.43577341
Si      12.53481186      13.60358603      12.03386756      -0.26333327       0.12772848      -0.63750283
Si      14.37701972      12.51997886      13.12764862      -0.10910796       0.03146174       0.02291945
5
Lattice="27.25 0.0 0.0 0.0 27.25 0.0 0.0 0.0 27.25" Properties=species:S:1:pos:R:3:forces:R:3 energy=-43.721479069356974 bias_energy=-43.720905625803624 name=N pbc="T T T"
Si      12.86579018      12.80189442      14.51026441       0.06719524      -0.14410561      -0.04437310
Si      13.34643805      15.01970858      13.53715037      -0.18856193      -0.12022876       0.15529679
Si      14.89525899      13.96783108      15.03153984       0.55155050       0.28171430       0.33847215
Si      12.35650793      13.28130887      12.21697392      -0.34978374      -0.05842589      -0.51244604
Si      14.66100486      13.05425705      12.82907146      -0.08040008       0.04104596       0.06305020
5
Lattice="27.25 0.0 0.0 0.0 27.25 0.0 0.0 0.0 27.25" Properties=species:S:1:pos:R:3:forces:R:3 energy=-43.721407743006424 bias_energy=-43.720867679849505 name=N pbc="T T T"
Si      12.96763685      12.42462768      14.02901599       0.01313721      -0.08313828      -0.14565061
Si      13.14616108      14.88658962      14.08673635      -0.10414095      -0.17103653       0.29447268
Si      14.78984605      13.50466693      15.15614756       0.46435609       0.12246691       0.38507996
Si      12.46519158      13.74364993      12.09142520      -0.27896628       0.10430964      -0.60242775
Si      14.75616444      13.56546584      12.76167490      -0.09438608       0.02739826       0.06852572
5
Lattice="27.25 0.0 0.0 0.0 27.25 0.0 0.0 0.0 27.25" Properties=species:S:1:pos:R:3:forces:R:3 energy=-43.72135022112344 bias_energy=-43.71998438516838 name=N pbc="T T T"
Si      13.38208354      12.31081811      14.12228068       0.09119659      -0.01144097      -0.00623049
Si      12.85528947      14.72773639      14.10056690      -0.16444127      -0.23169564       0.13874468
Si      14.91023964      13.91875641      15.02880255       0.53668008       0.33564330       0.32537593
Si      12.33431327      13.33322178      12.22621088      -0.33291096      -0.10126599      -0.49536447
Si      14.64307408      13.83446731      12.64713899      -0.13052444       0.00875931       0.03747434
5
Lattice="27.25 0.0 0.0 0.0 27.25 0.0 0.0 0.0 27.25" Properties=species:S:1:pos:R:3:forces:R:3 energy=-43.72120977576843 bias_energy=-43.71991571845185 name=N pbc="T T T"
Si      13.63514636      12.20044739      13.58229197      -0.02380887       0.01207727      -0.12029656
Si      12.68558302      14.30694338      14.45444247      -0.06610249      -0.27547590       0.23908262
Si      14.88981955      13.58721218      15.08029856       0.47669723       0.15660068       0.36756853
Si      12.36473895      13.65498451      12.16654787      -0.28980859       0.09864616      -0.58891335
Si      14.54971213      14.37541254      12.84141914      -0.09697728       0.00815179       0.10255877
5
Lattice="27.25 0.0 0.0 0.0 27.25 0.0 0.0 0.0 27.25" Properties=species:S:1:pos:R:3:forces:R:3 energy=-43.72126490367332 bias_energy=-43.72038471309388 name=N pbc="T T T"
Si      14.16749581      12.30754478      13.60886300       0.00957669       0.04899051       0.03563652
Si      12.57588975      13.94986806      14.53434524      -0.04134093      -0.27403834       0.10871686
Si      14.93348620      14.14614211      14.94205768       0.51215559       0.34364520       0.33996156
Si      12.32277233      13.10071437      12.30313757      -0.31839059      -0.08157797      -0.52386733
Si      14.12535591      14.62073068      12.73659651      -0.16200075      -0.03701939       0.03955239
5
Lattice="27.25 0.0 0.0 0.0 27.25 0.0 0.0 0.0 27.25" Properties=species:S:1:pos:R:3:forces:R:3 energy=-43.72087197821712 bias_energy=-43.714814853046555 name=N pbc="T T T"
Si      14.10379003      12.33348660      13.25896803      -0.15375865       0.01131901      -0.08469643
Si      12.58060337      13.74214775      14.58705565       0.05010900      -0.23423416       0.12271287
Si      14.93588043      13.71653494      15.03877154       0.45462947       0.05571510       0.39110174
Si      12.31696972      13.54237271      12.20720548      -0.31328673       0.19384890      -0.60439294
Si      14.18775645      14.79045801      13.03299930      -0.03769309      -0.02664885       0.17527475
5
Lattice="27.25 0.0 0.0 0.0 27.25 0.0 0.0 0.0 27.25" Properties=species:S:1:pos:R:3:forces:R:3 energy=-43.721349152679636 bias_energy=-43.72075737211452 name=N pbc="T T T"
Si      14.63353600      12.94125668      12.88475473      -0.07802467       0.03086370       0.06382696
Si      12.85716852      12.91839298      14.59767107       0.04930545      -0.21841023       0.08048347
Si      14.92328942      14.08058803      14.97509357       0.50096853       0.32229309       0.35775131
Si      12.32922348      13.17576086      12.27098943      -0.31538102      -0.04771307      -0.55883644
Si      13.38178258      15.00900145      13.39649121      -0.15686829      -0.08703350       0.05677470
