5
Lattice="27.25 0.0 0.0 0.0 27.25 0.0 0.0 0.0 27.25" Properties=species:S:1:pos:R:3:forces:R:3 name=N0 pbc="T T T"
Si      13.06995029      12.79409866      14.64118891      -0.35095016       0.09061796       0.10151420
Si      12.84810165      14.67824937      13.05775350      -0.32202447       0.10057299       0.08006351
Si      12.96723941      12.41457419      12.27872332       0.40025468      -0.34995637      -0.22868428
Si      14.96007427      13.40338246      13.17458841      -0.32514123       0.09499166       0.07882052
Si      14.27963439      14.83469532      14.97274587       0.44743381      -0.25695138      -0.12628811
5
Lattice="27.25 0.0 0.0 0.0 27.25 0.0 0.0 0.0 27.25" Properties=species:S:1:pos:R:3:forces:R:3 name=N pbc="T T T"
Si      13.06995029      12.79409866      14.64118891      -0.04082963      -0.05860339       0.13725405
Si      12.84810165      14.67824937      13.05775350      -0.14793913       0.28851741      -0.07049483
Si      12.96723941      12.41457419      12.27872332       0.13129039      -0.53404392       0.13044647
Si      14.96007427      13.40338246      13.17458841      -0.42839168       0.10997234       0.19477445
Si      14.27963439      14.83469532      14.97274587       0.22304022      -0.44196713       0.26052532
5
Lattice="27.25 0.0 0.0 0.0 27.25 0.0 0.0 0.0 27.25" Properties=species:S:1:pos:R:3:forces:R:3 name=N pbc="T T T"
Si      12.87540763      12.29971127      15.11209865      -0.08086435      -0.10552525       0.03587349
Si      12.66402818      14.23517620      13.58991294      -0.21851250       0.13290029      -0.15542548
Si      12.72363134      11.99661178      12.74300451       0.38406508       0.06756809      -0.47084456
Si      14.74954303      12.91584498      13.62936872      -0.34648282       0.12644329       0.18437868
Si      14.13242664      14.30585962      15.48348720       0.43865880       0.15773441      -0.36106748
5
Lattice="27.25 0.0 0.0 0.0 27.25 0.0 0.0 0.0 27.25" Properties=species:S:1:pos:R:3:forces:R:3 name=N pbc="T T T"
Si      12.93926465      12.43556023      14.76988193      -0.24698698      -0.17916442      -0.09450836
Si      12.68030119      14.35478751      13.24916076      -0.15639348       0.34253617       0.02913912
Si      12.91669337      12.10644804      12.38649353       0.11704398      -0.53451410       0.10096530
Si      14.82784150      13.14330622      13.34214689      -0.46208933       0.04781603       0.08019465
Si      14.14238228      14.47731503      15.17169447       0.14853295      -0.38049080       0.23800982
5
Lattice="27.25 0.0 0.0 0.0 27.25 0.0 0.0 0.0 27.25" Properties=species:S:1:pos:R:3:forces:R:3 name=N pbc="T T T"
Si      11.65025012      10.85743553      12.82081683      -0.40252442       0.16209328      -0.14210848
Si      11.38817761      13.26546853      12.34876360      -0.22162402       0.09404761      -0.10593644
Si      12.38313379      11.79150986      10.73740121       0.44285397      -0.34641303      -0.08433591
Si      13.64078815      12.31882974      12.70674877      -0.24375018       0.16828784      -0.10385497
Si      12.08365890      12.49958910      14.51359014       0.43644835      -0.33176303      -0.00339218
5
Lattice="27.25 0.0 0.0 0.0 27.25 0.0 0.0 0.0 27.25" Properties=species:S:1:pos:R:3:forces:R:3 name=N pbc="T T T"
Si      11.10323380       9.94402904      11.76602657      -0.37051150       0.20418261      -0.15278446
Si      11.73381467      12.26256108      11.20522901      -0.34293773       0.04031049      -0.12710208
Si      12.36670137      10.43540638       9.78915921       0.37811147      -0.40459070      -0.05803758
Si      13.46647953      10.64714063      11.90720149      -0.23635016       0.10707680      -0.07449817
Si      11.83676035      11.46395147      13.46242009       0.36574519      -0.38076986       0.02528063
5
Lattice="27.25 0.0 0.0 0.0 27.25 0.0 0.0 0.0 27.25" Properties=species:S:1:pos:R:3:forces:R:3 name=N pbc="T T T"
Si      10.64507206       9.28991654      11.04287940      -0.35327926       0.21071357      -0.15801875
Si      11.53221850      11.52718083      10.49693383      -0.37821631       0.04365294      -0.13076526
Si      12.07099731       9.62166765       9.14447658       0.35057367      -0.42198690      -0.05129053
Si      13.05163679       9.76762848      11.32850277      -0.24196376       0.08805362      -0.07308458
Si      11.41316146      10.76534781      12.76414226       0.33462098      -0.39428739       0.03302062
5
Lattice="27.25 0.0 0.0 0.0 27.25 0.0 0.0 0.0 27.25" Properties=species:S:1:pos:R:3:forces:R:3 name=N pbc="T T T"
Si      10.15849832       8.63718325      10.43474142      -0.34355211       0.21300298      -0.16045705
Si      11.19004160      10.81566390       9.89914470      -0.40038400       0.04870931      -0.13118033
Si      11.67246076       8.86318317       8.59169401       0.33062279      -0.43198721      -0.04796544
Si      12.57609825       8.98569713      10.80963528      -0.24741636       0.07603407      -0.07497345
Si      10.94009160      10.09069046      12.17031206       0.31258897      -0.40141370       0.03577786
