5
Lattice="27.25 0.0 0.0 0.0 27.25 0.0 0.0 0.0 27.25" Properties=species:S:1:pos:R:3:forces:R:3 energy=-43.72152854286357 bias_energy=0 name=N0 pbc="T T T"
Si      14.79717807      13.48636099      12.82453312       0.15129509       0.17955296      -0.10866403
Si      13.53596990      12.95777566      14.88169764      -0.02090774      -0.22195709      -0.08466511
Si      14.39994141      15.15773999      14.49638102      -0.19337417      -0.03744245      -0.34734804
Si      12.84931123      12.09066016      12.75565445       0.15671195       0.26580343       0.73509975
Si      12.54259939      14.43246320      13.16673376      -0.09372513      -0.18595684      -0.19442257
5
Lattice="27.25 0.0 0.0 0.0 27.25 0.0 0.0 0.0 27.25" Properties=species:S:1:pos:R:3:forces:R:3 energy=-43.7214259667302 bias_energy=-43.72131112134301 name=N pbc="T T T"
Si      14.77235606      13.49492080      12.78691089       0.11716309       0.18441883      -0.13784348
Si      13.65646179      13.11582078      14.95517808       0.11658266      -0.07057765       0.02082889
Si      14.27941730      15.32329999      14.25876260      -0.25803015       0.07328724      -0.39087647
Si      12.96822181      11.92838031      12.98855329       0.14873601       0.01877657       0.74393708
Si      12.44854304      14.26257812      13.13559514      -0.12445161      -0.20590499      -0.23604601
5
Lattice="27.25 0.0 0.0 0.0 27.25 0.0 0.0 0.0 27.25" Properties=species:S:1:pos:R:3:forces:R:3 energy=-43.721512126146564 bias_energy=-43.72135780409736 name=N pbc="T T T"
Si      14.75783960      13.48486195      12.77070332       0.10678358       0.15955100      -0.12381490
Si      13.73015012      13.29101887      15.00653494       0.08439180      -0.03244981       0.00109304
Si      14.14912574      15.43541084      14.02178435      -0.26379129       0.04764497      -0.39418189
Si      13.10020784      11.81447796      13.22511513       0.17401063       0.04638944       0.75200579
Si      12.38767670      14.09923037      13.10086226      -0.10139471      -0.22113560      -0.23510204
5
Lattice="27.25 0.0 0.0 0.0 27.25 0.0 0.0 0.0 27.25" Properties=species:S:1:pos:R:3:forces:R:3 energy=-43.721461443604426 bias_energy=-43.72123779115208 name=N pbc="T T T"
Si      14.75685388      13.46514172      12.77291354       0.10102026       0.14188102      -0.11173410
Si      13.76951229      13.47203727      15.03475910       0.05425432      -0.00929025      -0.01893993
Si      14.01354216      15.50470239      13.78913898      -0.26637868       0.02039697      -0.39352929
Si      13.23514462      11.74466497      13.45704592       0.19175726       0.08222237       0.75444200
Si      12.34994706      13.93845364      13.07114246      -0.08065315      -0.23521011      -0.23023868
5
Lattice="27.25 0.0 0.0 0.0 27.25 0.0 0.0 0.0 27.25" Properties=species:S:1:pos:R:3:forces:R:3 energy=-43.721499638697644 bias_energy=-43.72115639555967 name=N pbc="T T T"
Si      14.76481975      13.44679604      12.78832907       0.09750925       0.13078304      -0.10076629
Si      13.77971342      13.64797302      15.04239804       0.02668946       0.00219024      -0.04001506
Si      13.88041805      15.53264676      13.56545969      -0.26588557      -0.00663822      -0.39061562
Si      13.36863971      11.71593016      13.68069627       0.20258347       0.12103614       0.75345545
Si      12.33140908      13.78165402      13.04811693      -0.06089661      -0.24737120      -0.22205849
5
Lattice="27.25 0.0 0.0 0.0 27.25 0.0 0.0 0.0 27.25" Properties=species:S:1:pos:R:3:forces:R:3 energy=-43.721510570829956 bias_energy=-43.72109761234949 name=N pbc="T T T"
Si      14.78062523      13.43280217      12.81382644       0.09471764       0.12386334      -0.09043433
Si      13.76666523      13.81825512      15.03107243       0.00187527       0.00662193      -0.06051227
Si      13.74968738      15.52654275      13.34916501      -0.26405712      -0.03268539      -0.38687085
Si      13.49949213      11.72179569      13.89734131       0.20858806       0.16047645       0.74904001
Si      12.32853003      13.62560427      13.03359480      -0.04112384      -0.25827634      -0.21122256
5
Lattice="27.25 0.0 0.0 0.0 27.25 0.0 0.0 0.0 27.25" Properties=species:S:1:pos:R:3:forces:R:3 energy=-43.72146033794599 bias_energy=-43.72098344822519 name=N pbc="T T T"
Si      14.80200551      13.42559773      12.84793780       0.09234822       0.12032123      -0.08132962
Si      13.73328351      13.98210957      15.00167739      -0.02096395       0.00422287      -0.08033714
Si      13.62259747      15.48854019      13.14110602      -0.26051908      -0.05727484      -0.38183939
Si      13.62654130      11.75859008      14.10538443       0.21027067       0.19992542       0.74228134
Si      12.34057221      13.47016243      13.02889435      -0.02113587      -0.26719468      -0.19877518
5
Lattice="27.25 0.0 0.0 0.0 27.25 0.0 0.0 0.0 27.25" Properties=species:S:1:pos:R:3:forces:R:3 energy=-43.72145575366747 bias_energy=-43.72105320934737 name=N pbc="T T T"
Si      14.82746422      13.42861172      12.88823568       0.09006325       0.11951283      -0.07320822
Si      13.68052247      14.13581034      14.95553571      -0.04215067      -0.00427383      -0.09961880
Si      13.49952671      15.42029437      12.93854267      -0.25555844      -0.08096809      -0.37586621
Si      13.74988377      11.82742480      14.30875158       0.20859213       0.23919006       0.73333962
Si      12.36760283      13.31285877      13.03393436      -0.00094627      -0.27346096      -0.18464639
5
Lattice="27.25 0.0 0.0 0.0 27.25 0.0 0.0 0.0 27.25" Properties=species:S:1:pos:R:3:forces:R:3 energy=-43.72140357843031 bias_energy=-43.72075069647002 name=N pbc="T T T"
Si      14.85606105      13.44187955      12.93323104       0.08745550       0.12089087      -0.06577773
Si      13.61224634      14.27488753      14.89424521      -0.06213368      -0.01745346      -0.11764871
Si      13.38719821      15.32519965      12.75375400      -0.24934426      -0.10376531      -0.36948984
Si      13.86226074      11.92186689      14.49284276       0.20380526       0.27763857       0.72207756
Si      12.40723365      13.16116638      13.05092698       0.02021718      -0.27731067      -0.16916128
5
Lattice="27.25 0.0 0.0 0.0 27.25 0.0 0.0 0.0 27.25" Properties=species:S:1:pos:R:3:forces:R:3 energy=-43.72148121862715 bias_energy=-43.72101902841089 name=N pbc="T T T"
Si      14.88528442      13.47050890      12.98026830       0.08411449       0.12360243      -0.05968399
Si      13.52689096      14.39762520      14.81969877      -0.07976407      -0.03553948      -0.13447310
Si      13.28168756      15.20246208      12.57439909      -0.24190231      -0.12493748      -0.36193727
Si      13.96828854      12.04479455      14.67226630       0.19633189       0.31478611       0.70935973
Si      12.46284852      13.00960928      13.07836755       0.04122000      -0.27791158      -0.15326537
5
Lattice="27.25 0.0 0.0 0.0 27.25 0.0 0.0 0.0 27.25" Properties=species:S:1:pos:R:3:forces:R:3 energy=-43.72148006815611 bias_energy=-43.72093304932235 name=N pbc="T T T"
Si      14.91397462      13.51308611      13.02869024       0.08070416       0.12867809      -0.05425300
Si      13.42744186      14.50239778      14.73124292      -0.09648152      -0.05827734      -0.14874668
Si      13.18818871      15.05496332      12.41216529      -0.23324644      -0.14500224      -0.35503674
Si      14.06204881      12.19189464      14.83450473       0.18640765       0.34956063       0.69465518
Si      12.53334599      12.86265814      13.11839682       0.06261615      -0.27495913      -0.13661876
5
Lattice="27.25 0.0 0.0 0.0 27.25 0.0 0.0 0.0 27.25" Properties=species:S:1:pos:R:3:forces:R:3 energy=-43.72151590649362 bias_energy=-43.72116164552336 name=N pbc="T T T"
Si      14.93884595      13.57327830      13.07653974       0.07565021       0.13461517      -0.04991941
Si      13.31110376      14.58659993      14.62945809      -0.11097340      -0.08631221      -0.16186944
Si      13.10486673      14.87946559      12.25998803      -0.22322038      -0.16326552      -0.34688295
Si      14.14538308      12.36803294      14.98774429       0.17383833       0.38301382       0.67863754
Si      12.62480047      12.71762324      13.17126985       0.08470523      -0.26805126      -0.11996574
5
Lattice="27.25 0.0 0.0 0.0 27.25 0.0 0.0 0.0 27.25" Properties=species:S:1:pos:R:3:forces:R:3 energy=-43.721491733497515 bias_energy=-43.72129920247424 name=N pbc="T T T"
Si      14.95863008      13.65618937      13.12385318       0.06911544       0.14222664      -0.04655039
Si      13.17471595      14.64662425      14.51120980      -0.12369432      -0.12121365      -0.17226110
Si      13.03484296      14.67029362      12.12009196      -0.21148271      -0.17983928      -0.33838016
Si      14.21551787      12.57702745      15.12777480       0.15878496       0.41469939       0.66082202
Si      12.74129314      12.57486530      13.24207025       0.10727663      -0.25587309      -0.10363037
5
Lattice="27.25 0.0 0.0 0.0 27.25 0.0 0.0 0.0 27.25" Properties=species:S:1:pos:R:3:forces:R:3 energy=-43.72144402951512 bias_energy=-43.72133094019588 name=N pbc="T T T"
Si      14.96729680      13.76491713      13.16585023       0.06017803       0.15095197      -0.04423256
Si      13.01971372      14.67104601      14.38037898      -0.13383328      -0.16495958      -0.17938399
Si      12.98397426      14.43027988      11.99872172      -0.19743727      -0.19352135      -0.32938360
Si      14.26630869      12.81732437      15.24952771       0.14050293       0.44462713       0.64105480
Si      12.88770653      12.44143261      13.33052136       0.13058959      -0.23709817      -0.08805466
5
Lattice="27.25 0.0 0.0 0.0 27.25 0.0 0.0 0.0 27.25" Properties=species:S:1:pos:R:3:forces:R:3 energy=-43.721494124489155 bias_energy=-43.72140802514086 name=N pbc="T T T"
Si      14.95664183      13.90196361      13.19745773       0.04761886       0.16101380      -0.04265999
Si      12.85074603      14.64810132      14.24524897      -0.13974716      -0.21958343      -0.18132810
Si      12.95905696      14.16604359      11.90137920      -0.18093836      -0.20238227      -0.32070971
Si      14.29167923      13.08118992      15.34705511       0.11971445       0.47040934       0.61980785
Si      13.06687596      12.32770155      13.43385899       0.15335221      -0.20945744      -0.07511004
5
Lattice="27.25 0.0 0.0 0.0 27.25 0.0 0.0 0.0 27.25" Properties=species:S:1:pos:R:3:forces:R:3 energy=-43.72146708544165 bias_energy=-43.721347782779745 name=N pbc="T T T"
Si      14.91699787      14.06601467      13.21438592       0.03152140       0.17046089      -0.04287124
Si      12.67510453      14.56686066      14.11622404      -0.13837828      -0.28623297      -0.17289370
Si      12.96534377      13.89294961      11.83600812      -0.16291659      -0.19983854      -0.31372902
Si      14.28567695      13.35485244      15.41222778       0.09827815       0.48812415       0.60012813
Si      13.28187688      12.24432262      13.54615414       0.17149532      -0.17251353      -0.07063417
5
Lattice="27.25 0.0 0.0 0.0 27.25 0.0 0.0 0.0 27.25" Properties=species:S:1:pos:R:3:forces:R:3 energy=-43.72151539855729 bias_energy=-43.721226767202126 name=N pbc="T T T"
Si      14.83556299      14.25497740      13.21450580       0.01191585       0.17750265      -0.04259496
Si      12.50443276      14.41896729      14.01163377      -0.12611262      -0.36428392      -0.14981386
Si      13.00298402      13.63378861      11.80273394      -0.14678319      -0.17761953      -0.31318334
Si      14.24906288      13.61488545      15.44586518       0.07992106       0.49145876       0.58419499
Si      13.53295735      12.20238125      13.65026131       0.18105889      -0.12705797      -0.07860282
5
Lattice="27.25 0.0 0.0 0.0 27.25 0.0 0.0 0.0 27.25" Properties=species:S:1:pos:R:3:forces:R:3 energy=-43.7214962821558 bias_energy=-43.72100331096707 name=N pbc="T T T"
Si      14.67640165      14.48767400      13.19992564      -0.00849156       0.17166917      -0.03881538
Si      12.34569855      14.16864577      13.94805862      -0.08930803      -0.44941273      -0.10516246
Si      13.06836838      13.40079309      11.79543949      -0.14258748      -0.11672339      -0.32364147
Si      14.18396781      13.84750087      15.45417286       0.07619717       0.46944369       0.58104705
Si      13.85056361      12.22038627      13.72740338       0.16418990      -0.07497674      -0.11342774
5
Lattice="27.25 0.0 0.0 0.0 27.25 0.0 0.0 0.0 27.25" Properties=species:S:1:pos:R:3:forces:R:3 energy=-43.721386560534114 bias_energy=-43.72058076584044 name=N pbc="T T T"
Si      14.33668454      14.78852474      13.20782106      -0.00103911       0.12848199      -0.02222886
Si      12.25055042      13.72598087      13.99375880      -0.00662137      -0.50503761      -0.03244791
Si      13.11001394      13.28461316      11.80018698      -0.17921169       0.01278450      -0.35426521
Si      14.13969013      13.96253459      15.45245821       0.10574092       0.40048678       0.59558189
Si      14.28806097      12.36334665      13.67077495       0.08113124      -0.03671567      -0.18663991
5
Lattice="27.25 0.0 0.0 0.0 27.25 0.0 0.0 0.0 27.25" Properties=species:S:1:pos:R:3:forces:R:3 energy=-43.72139021492875 bias_energy=-43.71971565565515 name=N pbc="T T T"
Si      13.65892687      15.05109846      13.62182323       0.12058248       0.01602249      -0.01347303
Si      12.57862529      12.93415952      14.30376135       0.11703968      -0.42286400      -0.00481502
Si      12.56573892      13.64836016      12.01448985      -0.27003479       0.13230395      -0.36483140
Si      14.67982678      13.60402597      15.23635220       0.14391039       0.34709957       0.60185569
Si      14.64188214      12.88735589      12.94857337      -0.11149776      -0.07256201      -0.21873623
5
Lattice="27.25 0.0 0.0 0.0 27.25 0.0 0.0 0.0 27.25" Properties=species:S:1:pos:R:3:forces:R:3 energy=-43.71976136255719 bias_energy=-43.713373762159044 name=N pbc="T T T"
Si      13.70039147      15.02565967      13.38274137       0.23253723       0.01859690      -0.22619802
Si      12.47685033      13.05330992      14.24379857       0.08760831      -0.21348791      -0.15093946
Si      12.81216279      13.37216791      11.89185372      -0.12810354      -0.04508933      -0.30211361
Si      14.42496095      13.89132769      15.36454157      -0.08878647       0.45031879       0.66550803
Si      14.71063446      12.78253481      13.24206477      -0.10325553      -0.21033845       0.01374306
