5
Lattice="27.25 0.0 0.0 0.0 27.25 0.0 0.0 0.0 27.25" Properties=species:S:1:pos:R:3:forces:R:3 name=N0 pbc="T T T"
Si      12.83206598      12.50161484      14.97458555      -0.15984635       0.04749402      -0.34805054
Si      14.41667990      14.74821720      12.27596712      -0.34102140      -0.22724420       0.00089324
Si      12.46856361      13.46133554      12.80753755       0.35279411      -0.23911866      -0.04261298
Si      14.71681187      12.71528916      13.50681233       0.41087151      -0.30972206      -0.01645819
Si      13.69087865      14.69854325      14.56009746       0.38503815      -0.29381303      -0.00813505
5
Lattice="27.25 0.0 0.0 0.0 27.25 0.0 0.0 0.0 27.25" Properties=species:S:1:pos:R:3:forces:R:3 name=N pbc="T T T"
Si      12.83206598      12.50161484      14.97458555      -0.12554301       0.49712797      -0.03628520
Si      14.41667990      14.74821720      12.27596712      -0.36273728       0.16030534       0.36772744
Si      12.46856361      13.46133554      12.80753755       0.32017107      -0.05692403      -0.03957348
Si      14.71681187      12.71528916      13.50681233       0.27559001      -0.27667153       0.09840117
Si      13.69087865      14.69854325      14.56009746       0.38819627       0.10478368      -0.11006745
5
Lattice="27.25 0.0 0.0 0.0 27.25 0.0 0.0 0.0 27.25" Properties=species:S:1:pos:R:3:forces:R:3 name=N pbc="T T T"
Si      13.14725850      13.41378576      15.42155300      -0.15261386      -0.11383905      -0.38925235
Si      15.16893352      14.75857122      12.43107328      -0.44486468      -0.30906686       0.00592112
Si      13.00038564      13.97606018      13.09846187       0.28214948      -0.09614707       0.00088302
Si      15.05309991      12.98360986      14.03593520       0.32386078      -0.15365232       0.24358831
Si      14.41408161      15.29205291      14.64095299       0.26213800      -0.21787489       0.35482536
5
Lattice="27.25 0.0 0.0 0.0 27.25 0.0 0.0 0.0 27.25" Properties=species:S:1:pos:R:3:forces:R:3 name=N pbc="T T T"
Si      13.19026808      12.73564989      15.41205878       0.06090847      -0.05758458      -0.27586914
Si      15.48113376      14.27125892      12.72463840      -0.35914094      -0.35255444       0.19098396
Si      13.26111599      13.47401955      13.13640486       0.33928371      -0.19557318       0.04273827
Si      15.21658717      12.38170960      14.17822788       0.38735020      -0.23212722       0.32704253
Si      14.54093414      14.64776188      14.89594078       0.01691803      -0.19113668       0.35246322
5
Lattice="27.25 0.0 0.0 0.0 27.25 0.0 0.0 0.0 27.25" Properties=species:S:1:pos:R:3:forces:R:3 name=N pbc="T T T"
Si      13.28591541      12.29327442      15.53681577       0.13232870       0.10465005      -0.11789677
Si      15.73933984      13.96917277      13.08739318      -0.36429185      -0.25631113       0.35902422
Si      13.57469235      12.95725174      13.25596723       0.42642835      -0.24810082       0.03502360
Si      15.47990455      12.10990129      14.58043005       0.39962284      -0.28906132       0.31537175
Si      14.49737810      14.31507543      15.10507820      -0.06452370      -0.12503058       0.15232703
5
Lattice="27.25 0.0 0.0 0.0 27.25 0.0 0.0 0.0 27.25" Properties=species:S:1:pos:R:3:forces:R:3 name=N pbc="T T T"
Si      13.43734690      11.92603669      15.72327338       0.09512466       0.22263947       0.00557976
Si      16.02973129      13.70857521      13.50251067      -0.37695891      -0.12610794       0.39703619
Si      14.02951256      12.38769198      13.44968737       0.47092588      -0.22397763       0.02560902
Si      15.76845756      11.99763948      15.16196779       0.37210646      -0.29016923       0.20743673
Si      14.41017702      14.06024749      15.22742718      -0.02930735      -0.24068590       0.16923317
5
Lattice="27.25 0.0 0.0 0.0 27.25 0.0 0.0 0.0 27.25" Properties=species:S:1:pos:R:3:forces:R:3 name=N pbc="T T T"
Si      13.65765720      11.50556316      15.92907385      -0.02587500       0.37730978       0.09223711
Si      16.28083380      13.56418025      14.00084935      -0.43470740       0.03160405       0.38826383
Si      14.49459371      11.98602151      13.73715443       0.45648290      -0.19999434       0.03689012
Si      16.01376245      11.87237937      15.68011230       0.36215078      -0.26758245       0.12437684
Si      14.40374340      13.73623622      15.47874847       0.03544739      -0.19613387      -0.00765288
5
Lattice="27.25 0.0 0.0 0.0 27.25 0.0 0.0 0.0 27.25" Properties=species:S:1:pos:R:3:forces:R:3 name=N pbc="T T T"
Si      14.03229838      11.10609672      16.30871704      -0.17990413       0.42398806       0.08271731
Si      16.60855323      13.50928105      14.74867685      -0.49415457       0.10828009       0.27401158
Si      15.28778910      11.55977484      14.31623168       0.41772088      -0.13259461       0.06361322
Si      16.25575517      11.96845315      16.54827337       0.37659192      -0.22259452       0.04814835
Si      14.41906440      13.39687256      15.71998293       0.11519974      -0.21487742       0.02794215
