5
Lattice="27.25 0.0 0.0 0.0 27.25 0.0 0.0 0.0 27.25" Properties=species:S:1:pos:R:3:forces:R:3 name=N0 pbc="T T T"
Si      12.92553622      12.37195607      14.53259107       0.17884689      -0.52341182      -0.16506557
Si      13.72094370      15.24869672      11.96353590      -0.12690984       0.24250368      -0.10963444
Si      12.13118766      14.00644930      12.92291293       0.20442366      -0.07447844       0.17687261
Si      15.14285676      12.34032905      14.82852766      -0.10906834      -0.23852589       0.53615963
Si      14.20447567      14.15756886      13.87743244       0.08392475      -0.10002875      -0.35769625
5
Lattice="27.25 0.0 0.0 0.0 27.25 0.0 0.0 0.0 27.25" Properties=species:S:1:pos:R:3:forces:R:3 name=N pbc="T T T"
Si      12.92553622      12.37195607      14.53259107       0.18464556      -0.14350616       0.10938862
Si      13.72094370      15.24869672      11.96353590      -0.36382901       0.38919073      -0.30861502
Si      12.13118766      14.00644930      12.92291293       0.27485143       0.05686835       0.08558231
Si      15.14285676      12.34032905      14.82852766       0.17488412       0.22713771       0.61015570
Si      14.20447567      14.15756886      13.87743244      -0.10196680      -0.01276281      -0.05598376
