5
Lattice="27.25 0.0 0.0 0.0 27.25 0.0 0.0 0.0 27.25" Properties=species:S:1:pos:R:3:forces:R:3 energy=-43.7215168634503 bias_energy=0 name=N0 pbc="T T T"
Si      13.57871795      13.08007796      14.94030689       0.27931960       0.11073008       0.34416742
Si      13.90518339      11.86034594      12.90362959       0.11057318       0.28623521       0.22783092
Si      12.42828504      13.74766379      12.86128541      -0.16923114       0.14049398      -0.32384880
Si      13.34340822      15.38791080      14.34621111      -0.37364232      -0.53891141      -0.06194558
Si      14.86940539      14.04900152      13.07356700       0.15298068       0.00145214      -0.18620397
5
Lattice="27.25 0.0 0.0 0.0 27.25 0.0 0.0 0.0 27.25" Properties=species:S:1:pos:R:3:forces:R:3 energy=-43.72136680200924 bias_energy=-43.7203711545741 name=N pbc="T T T"
Si      13.67216270      13.14167462      14.96753112       0.35140545       0.12777470       0.25157068
Si      14.21343186      11.90885344      12.98373613       0.15705844       0.22485039       0.27924241
Si      12.42500584      13.49558651      12.86643550      -0.06019732       0.01152340      -0.31178766
Si      13.03654659      15.34513744      14.25949268      -0.52865055      -0.46193931      -0.03929671
Si      14.77785300      14.23374798      13.04780457       0.08038399       0.09779082      -0.17972873
5
Lattice="27.25 0.0 0.0 0.0 27.25 0.0 0.0 0.0 27.25" Properties=species:S:1:pos:R:3:forces:R:3 energy=-43.721424551593635 bias_energy=-43.72089183869685 name=N pbc="T T T"
Si      13.72791639      13.21228496      14.98579320       0.32475224       0.15261339       0.23716321
Si      14.50882423      12.00949512      13.06849682       0.16442799       0.23805845       0.27389065
Si      12.47850939      13.26184325      12.85734367      -0.03482616       0.01727834      -0.30651348
Si      12.74147762      15.24300174      14.18027273      -0.51936007      -0.50080194      -0.04522077
Si      14.66827238      14.39837493      13.03309358       0.06500600       0.09285177      -0.15931961
5
Lattice="27.25 0.0 0.0 0.0 27.25 0.0 0.0 0.0 27.25" Properties=species:S:1:pos:R:3:forces:R:3 energy=-43.72149600895142 bias_energy=-43.721083046716664 name=N pbc="T T T"
Si      13.75807681      13.28066880      15.00254234       0.29993623       0.16990386       0.22565729
Si      14.77840045      12.16065062      13.14713890       0.16543987       0.25435573       0.26915472
Si      12.57624025      13.05286534      12.84742464      -0.01324631       0.03056276      -0.29868564
Si      12.47108439      15.09168396      14.10011644      -0.49933969      -0.54082795      -0.04947257
Si      14.54119811      14.53913128      13.02777768       0.04720990       0.08600560      -0.14665380
5
Lattice="27.25 0.0 0.0 0.0 27.25 0.0 0.0 0.0 27.25" Properties=species:S:1:pos:R:3:forces:R:3 energy=-43.721472375446325 bias_energy=-43.72084260368731 name=N pbc="T T T"
Si      13.76731189      13.33998361      15.01385760       0.27515159       0.18193770       0.21512082
Si      15.00461531      12.34523371      13.22039882       0.16203077       0.27130592       0.26658655
Si      12.69938227      12.87829561      12.83778347       0.00397145       0.04894092      -0.29285991
Si      12.24585929      14.90612426      14.02782561      -0.47016057      -0.57979748      -0.05030342
Si      14.40783124      14.65536281      13.02513450       0.02900676       0.07761294      -0.13854404
5
Lattice="27.25 0.0 0.0 0.0 27.25 0.0 0.0 0.0 27.25" Properties=species:S:1:pos:R:3:forces:R:3 energy=-43.72146627749993 bias_energy=-43.72087937666952 name=N pbc="T T T"
Si      13.76441941      13.39038847      15.02333008       0.25249887       0.18817856       0.20639056
Si      15.19527677      12.56324021      13.28996910       0.15527669       0.28855753       0.26564687
Si      12.85013437      12.73293388      12.82865571       0.01519564       0.07097907      -0.28865493
Si      12.05454186      14.68789039      13.95759940      -0.43558809      -0.61398927      -0.04917598
Si      14.26062759      14.75054704      13.02544571       0.01261690       0.06627411      -0.13420652
5
Lattice="27.25 0.0 0.0 0.0 27.25 0.0 0.0 0.0 27.25" Properties=species:S:1:pos:R:3:forces:R:3 energy=-43.72148239106134 bias_energy=-43.72091695599239 name=N pbc="T T T"
Si      13.75156657      13.43032942      15.03026208       0.23129566       0.18955126       0.19828702
Si      15.34850215      12.80890590      13.35615269       0.14545006       0.30574159       0.26646133
Si      13.02024680      12.61668817      12.81942337       0.02180669       0.09635571      -0.28710878
Si      11.90168310      14.44138954      13.89169925      -0.39578832      -0.64386606      -0.04578439
Si      14.10300138      14.82768696      13.02746261      -0.00276410       0.05221749      -0.13185518
5
Lattice="27.25 0.0 0.0 0.0 27.25 0.0 0.0 0.0 27.25" Properties=species:S:1:pos:R:3:forces:R:3 energy=-43.72147382908829 bias_energy=-43.7208607405215 name=N pbc="T T T"
Si      13.73316108      13.45721833      15.03556771       0.21273607       0.18610946       0.19111004
Si      15.45935493      13.07663534      13.41709440       0.13256920       0.32263078       0.26879675
Si      13.20714541      12.53407637      12.80988682       0.02210627       0.12507625      -0.28820236
Si      11.79063164      14.17378269      13.82908895      -0.35184814      -0.66808459      -0.04012770
Si      13.93470694      14.88328728      13.03336214      -0.01556340       0.03426810      -0.13157673
5
Lattice="27.25 0.0 0.0 0.0 27.25 0.0 0.0 0.0 27.25" Properties=species:S:1:pos:R:3:forces:R:3 energy=-43.72146839933811 bias_energy=-43.720970911441405 name=N pbc="T T T"
Si      13.71317237      13.46970578      15.03857543       0.19790904       0.17787238       0.18434563
Si      15.52769837      13.36717055      13.47534629       0.11663596       0.33838006       0.27289038
Si      13.40670335      12.48611102      12.79767809       0.01686467       0.15591777      -0.29209222
Si      11.72249035      13.88317557      13.77026650      -0.30513979      -0.68563027      -0.03248880
Si      13.75493556      14.91883708      13.04313370      -0.02626987       0.01346007      -0.13265500
5
Lattice="27.25 0.0 0.0 0.0 27.25 0.0 0.0 0.0 27.25" Properties=species:S:1:pos:R:3:forces:R:3 energy=-43.72146548517325 bias_energy=-43.72112348850132 name=N pbc="T T T"
Si      13.69671059      13.46580061      15.03969878       0.18771379       0.16484419       0.17791860
Si      15.54767554      13.68033053      13.53057088       0.09798151       0.35237566       0.27894958
Si      13.61816114      12.47805486      12.78028251       0.00363342       0.18916887      -0.29948706
Si      11.70240335      13.56933069      13.71395415      -0.25673537      -0.69491294      -0.02182664
Si      13.56004938      14.93148331      13.06049368      -0.03259335      -0.01147578      -0.13555448
5
Lattice="27.25 0.0 0.0 0.0 27.25 0.0 0.0 0.0 27.25" Properties=species:S:1:pos:R:3:forces:R:3 energy=-43.7213649355094 bias_energy=-43.72106933132145 name=N pbc="T T T"
Si      13.69077183      13.44200112      15.03729471       0.18437035       0.14675903       0.17148472
Si      15.51199364      14.00702707      13.58124057       0.07634299       0.36308658       0.28749558
Si      13.83242382      12.51698059      12.75448824      -0.01968737       0.22454836      -0.31095187
Si      11.73898154      13.24229767      13.66152806      -0.20808234      -0.69390862      -0.00783292
Si      13.35082917      14.91669355      13.09044841      -0.03294363      -0.04048535      -0.14019550
5
Lattice="27.25 0.0 0.0 0.0 27.25 0.0 0.0 0.0 27.25" Properties=species:S:1:pos:R:3:forces:R:3 energy=-43.7213906677958 bias_energy=-43.721021777957084 name=N pbc="T T T"
Si      13.70814161      13.39754642      15.02955157       0.19064360       0.12455755       0.16401756
Si      15.41770536      14.32916112      13.62788083       0.05305050       0.36785076       0.29897675
Si      14.02964698      12.60699736      12.71432894      -0.05566194       0.26026065      -0.32605631
Si      11.83401593      12.91949464      13.61548950      -0.16283585      -0.68009354       0.00981147
Si      13.13549011      14.87180046      13.13774916      -0.02519631      -0.07257542      -0.14674947
5
Lattice="27.25 0.0 0.0 0.0 27.25 0.0 0.0 0.0 27.25" Properties=species:S:1:pos:R:3:forces:R:3 energy=-43.721459776939895 bias_energy=-43.72083720701875 name=N pbc="T T T"
Si      13.76181129      13.33475691      15.01287773       0.20862890       0.10037026       0.15571215
Si      15.26786031      14.63026548      13.67179314       0.03221741       0.36417646       0.31304779
Si      14.19086528      12.74796661      12.65361725      -0.10622845       0.29009704      -0.34297545
Si      11.98411053      12.61751901      13.57569160      -0.12871429      -0.65225662       0.02926064
Si      12.92035259      14.79449198      13.21102029      -0.00590357      -0.10238714      -0.15504513
5
Lattice="27.25 0.0 0.0 0.0 27.25 0.0 0.0 0.0 27.25" Properties=species:S:1:pos:R:3:forces:R:3 energy=-43.72141289626788 bias_energy=-43.72087385536333 name=N pbc="T T T"
Si      13.87715484      13.25241709      14.97650680       0.23780510       0.08060025       0.14424544
Si      15.04869077      14.92048656      13.71863019       0.01906463       0.34766836       0.33037380
Si      14.30194404      12.95515597      12.56289706      -0.17185547       0.30867940      -0.35696466
Si      12.20154059      12.32887038      13.53111507      -0.11250159      -0.61214893       0.04814551
Si      12.69566977      14.66807001      13.33585088       0.02748733      -0.12479908      -0.16580009
5
Lattice="27.25 0.0 0.0 0.0 27.25 0.0 0.0 0.0 27.25" Properties=species:S:1:pos:R:3:forces:R:3 energy=-43.721464754810754 bias_energy=-43.72118878643349 name=N pbc="T T T"
Si      14.10290430      13.15730952      14.88501398       0.27652512       0.07150438       0.12504028
Si      14.74429470      15.18483882      13.78186485       0.02132557       0.31575315       0.35150345
Si      14.30297198      13.25758377      12.42517381      -0.25302211       0.30886293      -0.35951737
Si      12.50408948      12.06504455      13.46738855      -0.12069930      -0.56130013       0.06396240
Si      12.47073953      14.46022333      13.56555882       0.07587072      -0.13482033      -0.18098875
5
Lattice="27.25 0.0 0.0 0.0 27.25 0.0 0.0 0.0 27.25" Properties=species:S:1:pos:R:3:forces:R:3 energy=-43.72147120198133 bias_energy=-43.72110041587076 name=N pbc="T T T"
Si      14.47210998      13.08281644      14.63656825       0.30596109       0.08425481       0.09743144
Si      14.41877033      15.35894666      13.89230046       0.06232581       0.26816340       0.37525671
Si      14.05065241      13.64035478      12.26504723      -0.33932830       0.27556884      -0.33410345
Si      12.83528551      11.88913021      13.35634770      -0.16652053      -0.51054318       0.07172666
Si      12.34818178      14.15375191      13.97473636       0.13756193      -0.11744388      -0.21031136
5
Lattice="27.25 0.0 0.0 0.0 27.25 0.0 0.0 0.0 27.25" Properties=species:S:1:pos:R:3:forces:R:3 energy=-43.72134533168542 bias_energy=-43.72029312913415 name=N pbc="T T T"
Si      14.93746663      13.09477746      13.79230547       0.26508784       0.13151741       0.09957064
Si      14.24991865      15.35430691      14.20529512       0.16125518       0.23412852       0.38670971
Si      13.23930348      14.18446078      12.36954777      -0.35802795       0.19021651      -0.25454619
Si      12.99739693      11.89640408      13.04891855      -0.25919544      -0.49877708       0.05804114
Si      12.70091431      13.59505076      14.70893310       0.19088038      -0.05708536      -0.28977529
5
Lattice="27.25 0.0 0.0 0.0 27.25 0.0 0.0 0.0 27.25" Properties=species:S:1:pos:R:3:forces:R:3 energy=-43.71885957273102 bias_energy=-43.707829217514764 name=N pbc="T T T"
Si      14.86616050      13.11502163      14.10606970       0.12792719       0.16033606       0.49013220
Si      14.17839209      15.40942425      14.12271428       0.03468488       0.31802366       0.16762927
Si      13.50551215      14.03396458      12.26221558       0.10011880      -0.06767123      -0.31029203
Si      13.06999379      11.83480939      13.14485694      -0.31786991      -0.47827173       0.02452141
Si      12.50494148      13.73178015      14.48914350       0.05513904       0.06758324      -0.37199085
5
Lattice="27.25 0.0 0.0 0.0 27.25 0.0 0.0 0.0 27.25" Properties=species:S:1:pos:R:3:forces:R:3 energy=-43.69483276776529 bias_energy=-43.65255990293533 name=N pbc="T T T"
Si      14.71649909      13.05933868      14.34380097       0.10625306       0.14077156       0.37067732
Si      14.29731015      15.39012061      14.08992093       0.19403473       0.26430704       0.24681028
Si      13.75538939      13.90916972      12.22340134      -0.00128681      -0.00129351      -0.23757505
Si      12.95988712      11.83562868      13.22443444      -0.42210271      -0.48506956       0.03279088
Si      12.39591426      13.93074231      14.24344232       0.12310173       0.08128448      -0.41270343
5
Lattice="27.25 0.0 0.0 0.0 27.25 0.0 0.0 0.0 27.25" Properties=species:S:1:pos:R:3:forces:R:3 energy=-43.68251896934886 bias_energy=-43.45231962793015 name=N pbc="T T T"
Si      14.71458667      13.06209753      14.35258331       0.19100053       0.20750183       0.24516235
Si      14.30200076      15.39044547      14.08687364       0.16925902       0.25785991       0.30268057
Si      13.76082271      13.89958474      12.21829519      -0.18833412       0.04375324      -0.24298029
Si      12.95578247      11.82858712      13.24537048      -0.35398344      -0.52106895       0.07184760
Si      12.39180740      13.94428514      14.22187738       0.18205801       0.01195398      -0.37671024
5
Lattice="27.25 0.0 0.0 0.0 27.25 0.0 0.0 0.0 27.25" Properties=species:S:1:pos:R:3:forces:R:3 energy=-43.53774497694589 bias_energy=-43.4106609019699 name=N pbc="T T T"
Si      14.50934658      13.15132368      14.63522634       0.18812622       0.20122581       0.24750326
Si      14.42131862      15.39694307      13.95310258       0.16827934       0.25408316       0.31524774
Si      14.00052557      13.62605777      12.22255256      -0.18315938       0.05618711      -0.24581390
Si      12.84601680      11.80258648      13.47559090      -0.35759620      -0.51762369       0.05765216
Si      12.34779244      14.14808900      13.83852762       0.18435002       0.00612762      -0.37458926
