5
Lattice="27.25 0.0 0.0 0.0 27.25 0.0 0.0 0.0 27.25" Properties=species:S:1:pos:R:3:forces:R:3 name=N0 pbc="T T T"
Si      12.45453650      13.63099734      14.84554427       0.19410101      -0.04401126      -0.20881978
Si      15.71131117      14.03029973      12.68556555      -0.49563614      -0.31441667       0.17555467
Si      14.84185706      13.99179435      14.74210794       0.08523735       0.13427659       0.11968552
Si      11.43993264      13.37148081      12.86970770       0.58983802      -0.14147970       0.13685853
Si      13.67736263      13.10042777      12.98207454      -0.04379718       0.33467974       0.03528494
5
Lattice="27.25 0.0 0.0 0.0 27.25 0.0 0.0 0.0 27.25" Properties=species:S:1:pos:R:3:forces:R:3 name=N pbc="T T T"
Si      12.45453650      13.63099734      14.84554427       0.15962915      -0.04287454      -0.19416812
Si      15.71131117      14.03029973      12.68556555      -0.65185357      -0.08853101       0.20622551
Si      14.84185706      13.99179435      14.74210794       0.12970962       0.03682548       0.19888805
Si      11.43993264      13.37148081      12.86970770       0.52836455       0.08853308       0.04865778
Si      13.67736263      13.10042777      12.98207454       0.09718912       0.26676066       0.17883054
5
Lattice="27.25 0.0 0.0 0.0 27.25 0.0 0.0 0.0 27.25" Properties=species:S:1:pos:R:3:forces:R:3 name=N pbc="T T T"
Si      12.75228328      13.56306615      15.31165389       0.20405986      -0.00968088      -0.08388686
Si      16.14108945      14.85131314      13.78370480      -0.58934138      -0.24461835       0.15710241
Si      15.07735234      14.16570858      15.62338088       0.15475880       0.11654108       0.11525391
Si      11.97436898      13.83491815      13.23316271       0.41167812       0.02220299       0.22782833
Si      14.20531860      13.71750254      13.54905999      -0.09134489       0.48811612      -0.00958519
5
Lattice="27.25 0.0 0.0 0.0 27.25 0.0 0.0 0.0 27.25" Properties=species:S:1:pos:R:3:forces:R:3 name=N pbc="T T T"
Si      13.26369880      13.41562794      15.75007919       0.01489367       0.10571765      -0.17053389
Si      15.92717965      16.03591716      14.52664475      -0.56750769      -0.42765542       0.03515023
Si      15.48949041      14.34917582      15.92325444       0.02807009      -0.04133908       0.14714259
Si      11.95732599      14.36031813      14.20222281       0.54404295       0.07049709       0.11446777
Si      14.18489451      14.67734337      14.06795928      -0.31307902       0.11467970      -0.06290734
5
Lattice="27.25 0.0 0.0 0.0 27.25 0.0 0.0 0.0 27.25" Properties=species:S:1:pos:R:3:forces:R:3 name=N pbc="T T T"
Si      13.24885929      13.39944581      15.74255424       0.01369787       0.10677830      -0.17151983
Si      15.90040836      16.02626729      14.53416930      -0.56434540      -0.42874352       0.03638796
Si      15.47656732      14.33441414      15.92895769       0.02967361      -0.04191520       0.14924520
Si      11.94377825      14.36456540      14.21025886       0.54350508       0.06658559       0.11445927
Si      14.17031717      14.66357872      14.07209374      -0.31548224       0.11754608      -0.06458241
5
Lattice="27.25 0.0 0.0 0.0 27.25 0.0 0.0 0.0 27.25" Properties=species:S:1:pos:R:3:forces:R:3 name=N pbc="T T T"
Si      11.71075379      12.17340191      15.26467274      -0.06764923       0.04262862      -0.07025492
Si      14.40649321      15.01468756      15.67844118      -0.49334357      -0.45741864      -0.08058714
Si      13.98450556      12.82274099      15.80948031      -0.02043753      -0.01074026       0.02786840
Si      10.34338971      13.86754718      14.77252191       0.59406534      -0.11647048       0.17575965
Si      12.56877844      14.20742022      14.64871861      -0.08807130       0.24212147      -0.25396287
5
Lattice="27.25 0.0 0.0 0.0 27.25 0.0 0.0 0.0 27.25" Properties=species:S:1:pos:R:3:forces:R:3 name=N pbc="T T T"
Si      11.70207853      12.15017989      15.23677538      -0.06863968       0.04099446      -0.06927620
Si      14.39710926      14.98772534      15.67616223      -0.49037402      -0.45564542      -0.08357846
Si      13.98212653      12.79554576      15.78716843      -0.02018794      -0.00958185       0.02580776
Si      10.34082231      13.86148144      14.76750088       0.59497571      -0.12211825       0.17503149
Si      12.56581348      14.18804316      14.63736518      -0.09000873       0.24505651      -0.25471439
5
Lattice="27.25 0.0 0.0 0.0 27.25 0.0 0.0 0.0 27.25" Properties=species:S:1:pos:R:3:forces:R:3 name=N pbc="T T T"
Si      11.45551298      11.58316321      13.47929596      -0.09083402      -0.11555574      -0.11593083
Si      14.10721062      13.08836178      15.95704292      -0.34621379      -0.30903954      -0.31151519
Si      13.71000269      11.58078736      14.35629922       0.02758716       0.16734177      -0.06930728
Si      10.08839758      13.10365772      14.38066470       0.60534041      -0.20719367       0.05598590
Si      12.31430088      13.38013249      14.61992779      -0.08251003       0.44682388      -0.00412333
5
Lattice="27.25 0.0 0.0 0.0 27.25 0.0 0.0 0.0 27.25" Properties=species:S:1:pos:R:3:forces:R:3 name=N pbc="T T T"
Si      11.69227862      12.12746482      12.42405938      -0.09095067      -0.09270070      -0.17584909
Si      14.32971437      12.59195952      15.29158831      -0.29909398      -0.34676881      -0.31171365
Si      14.01679884      12.14978784      13.12132504       0.01582679       0.20175722      -0.05472914
Si      10.21760190      12.61415064      14.02956379       0.55415891      -0.23830320      -0.02793292
Si      12.37456829      13.18612773      14.34350458      -0.15680456       0.44989592      -0.09866067
5
Lattice="27.25 0.0 0.0 0.0 27.25 0.0 0.0 0.0 27.25" Properties=species:S:1:pos:R:3:forces:R:3 name=N pbc="T T T"
Si      12.23129826      13.13278787      11.51246245      -0.06138276      -0.06240828      -0.26194073
Si      14.07645529      12.39840281      14.90311953      -0.19959948      -0.37271330      -0.28511518
Si      14.26981870      13.18564554      12.82187330       0.03802013       0.19300735      -0.00210324
Si      10.43218242      12.34473856      12.57562767       0.54414330      -0.23802232       0.11896452
Si      12.20631870      13.01248507      13.79987377      -0.00697761       0.50794997      -0.00397893
5
Lattice="27.25 0.0 0.0 0.0 27.25 0.0 0.0 0.0 27.25" Properties=species:S:1:pos:R:3:forces:R:3 name=N pbc="T T T"
Si      13.09160637      13.47780817      10.83046465      -0.03447996      -0.04193102      -0.29609829
Si      14.41280837      12.69703360      14.44829189      -0.13986509      -0.38983403      -0.22076364
Si      14.75210175      13.83570697      12.55968152       0.06801248       0.14696268      -0.00237209
Si      11.45233251      12.06309415      11.36556742       0.47928394      -0.24414572       0.31667997
Si      12.68094487      12.96979303      13.02529290      -0.06566691       0.51806309       0.02391721
5
Lattice="27.25 0.0 0.0 0.0 27.25 0.0 0.0 0.0 27.25" Properties=species:S:1:pos:R:3:forces:R:3 name=N pbc="T T T"
Si      13.87614875      13.03885371      10.24960682      -0.05394441      -0.06754298      -0.29349106
Si      15.27242158      13.54255514      13.89968976      -0.12186342      -0.45373209      -0.12183457
Si      15.18369674      14.35097795      11.82130547       0.12746012       0.12523310       0.00988289
Si      12.99003295      11.17364402      11.10424158       0.36489013      -0.08160037       0.46961538
Si      13.64985247      12.80054023      12.52008868      -0.21128596       0.47355128      -0.09778596
