5
Lattice="27.25 0.0 0.0 0.0 27.25 0.0 0.0 0.0 27.25" Properties=species:S:1:pos:R:3:forces:R:3 energy=-43.72146544748146 bias_energy=0 name=N0 pbc="T T T"
Si      14.06486208      12.78520079      15.30232830       0.56085603      -0.39692240      -0.11588638
Si      13.18899258      14.46330921      11.94674929      -0.57224199      -0.12696530       0.20597265
Si      14.60080788      14.63177358      13.87531416       0.01134182       0.20547070      -0.04355820
Si      12.28272558      13.81231022      14.06759592      -0.10186042       0.21930947      -0.07044464
Si      13.98761187      12.43240621      12.93301233       0.10190456       0.09910753       0.02391657
5
Lattice="27.25 0.0 0.0 0.0 27.25 0.0 0.0 0.0 27.25" Properties=species:S:1:pos:R:3:forces:R:3 energy=-43.721485394584214 bias_energy=-43.720978831246 name=N pbc="T T T"
Si      14.29375925      12.76416010      15.21223270       0.57007797      -0.33369090      -0.20096099
Si      12.95409212      14.48912195      12.04062157      -0.61956620      -0.10016763       0.17464946
Si      14.56781657      14.67942652      13.79989077      -0.04955630       0.18934354      -0.06453846
Si      12.33312104      13.71282682      14.21966745       0.00389300       0.11965240       0.12698082
Si      13.97621102      12.47946461      12.85258750       0.09515153       0.12486259      -0.03613083
