5
Lattice="27.25 0.0 0.0 0.0 27.25 0.0 0.0 0.0 27.25" Properties=species:S:1:pos:R:3:forces:R:3 energy=-41.25044665147463 bias_energy=0 name=N0 pbc="T T T"
Si      14.21981998      12.77502721      12.28875991      -0.18518262       0.56011498       0.00026813
Si      12.59857007      13.87903065      15.69354482      -0.25202116      -0.25307527       0.04897111
Si      13.46218173      12.19157097      14.50986759       0.51703549       0.02827983      -0.28817647
Si      13.95548099      14.91888890      11.72437808      -0.12314902      -0.28615717       0.26257182
Si      13.88894724      14.36048226      13.90844960       0.04331732      -0.04916237      -0.02363459
5
Lattice="27.25 0.0 0.0 0.0 27.25 0.0 0.0 0.0 27.25" Properties=species:S:1:pos:R:3:forces:R:3 energy=-41.25033103339467 bias_energy=-41.25010912308297 name=N pbc="T T T"
Si      14.32986257      12.94590685      12.24576247      -0.18217344       0.45241813      -0.03418400
Si      12.58911193      13.61264590      15.70461711      -0.26208170      -0.40206926      -0.00923094
Si      13.67070682      12.13454137      14.42737432       0.63550363      -0.02645311      -0.22702253
Si      13.76000822      15.05687371      11.79840881      -0.17800516      -0.04069627       0.18026685
Si      13.77531046      14.37503217      13.94883729      -0.01324332       0.01680051       0.09017062
5
Lattice="27.25 0.0 0.0 0.0 27.25 0.0 0.0 0.0 27.25" Properties=species:S:1:pos:R:3:forces:R:3 energy=-41.25023912356283 bias_energy=-41.250134693152596 name=N pbc="T T T"
Si      14.42034636      13.12648068      12.21869190      -0.14696391       0.46368153      -0.03160202
Si      12.59094094      13.35021258      15.68931155      -0.23266035      -0.40915109      -0.04022766
Si      13.88197759      12.11587921      14.34617064       0.62239103       0.00702413      -0.22390554
Si      13.56790382      15.16041348      11.87967945      -0.22177918      -0.04808495       0.20192906
Si      13.66383129      14.37201405      13.99114646      -0.02098758      -0.01346962       0.09380616
5
Lattice="27.25 0.0 0.0 0.0 27.25 0.0 0.0 0.0 27.25" Properties=species:S:1:pos:R:3:forces:R:3 energy=-41.249730411640634 bias_energy=-41.24928551867874 name=N pbc="T T T"
Si      14.47454627      13.28832760      12.20705771      -0.12122756       0.48346222      -0.02655891
Si      12.60716030      13.12152939      15.65320280      -0.20011625      -0.40648202      -0.06801535
Si      14.06847669      12.12989011      14.28495343       0.60020594       0.03430295      -0.21966572
Si      13.40704778      15.23490473      11.95675143      -0.25813804      -0.06725135       0.22187338
Si      13.56776896      14.35034817      14.02303463      -0.02072409      -0.04403180       0.09236660
5
Lattice="27.25 0.0 0.0 0.0 27.25 0.0 0.0 0.0 27.25" Properties=species:S:1:pos:R:3:forces:R:3 energy=-41.24979986689075 bias_energy=-41.24977322938992 name=N pbc="T T T"
Si      14.53433402      13.50237349      12.21129714      -0.10856807       0.50481493      -0.02127728
Si      12.65573937      12.85402540      15.58954969      -0.16995320      -0.39895500      -0.08998321
Si      14.26626479      12.16745568      14.20149248       0.57487241       0.05286062      -0.21629630
Si      13.20606754      15.29044884      12.05430106      -0.28106173      -0.09040943       0.23795015
Si      13.46259427      14.31069659      14.06835962      -0.01528941      -0.06831112       0.08960664
5
Lattice="27.25 0.0 0.0 0.0 27.25 0.0 0.0 0.0 27.25" Properties=species:S:1:pos:R:3:forces:R:3 energy=-41.2498013778992 bias_energy=-41.249800334341984 name=N pbc="T T T"
Si      14.57248400      13.76568858      12.23298401      -0.09874028       0.53294830      -0.01010995
Si      12.74523496      12.55329172      15.49228116      -0.13721107      -0.37741619      -0.11233803
Si      14.47751649      12.24234594      14.11016503       0.54167001       0.06521341      -0.21471358
Si      12.98133857      15.32976098      12.17710871      -0.30298358      -0.12495264       0.25526563
Si      13.34842599      14.23391277      14.11246109      -0.00273508      -0.09579288       0.08189594
5
Lattice="27.25 0.0 0.0 0.0 27.25 0.0 0.0 0.0 27.25" Properties=species:S:1:pos:R:3:forces:R:3 energy=-41.25032462378249 bias_energy=-41.25031901222516 name=N pbc="T T T"
Si      14.57869779      14.02077759      12.28827758      -0.10093288       0.56487649       0.00632421
Si      12.86997088      12.28869064      15.37087961      -0.10727715      -0.34032129      -0.12983576
Si      14.64480446      12.33150192      14.01040107       0.50288653       0.06648645      -0.21703311
Si      12.77112585      15.33272428      12.29749218      -0.31528617      -0.16931623       0.27221252
Si      13.26040103      14.15130557      14.15794957       0.02060967      -0.12172543       0.06833215
5
Lattice="27.25 0.0 0.0 0.0 27.25 0.0 0.0 0.0 27.25" Properties=species:S:1:pos:R:3:forces:R:3 energy=-41.250151886272306 bias_energy=-41.250087139278115 name=N pbc="T T T"
Si      14.55175054      14.24643591      12.35516161      -0.11517489       0.58995234       0.02548568
Si      13.00696852      12.07509508      15.24009529      -0.08917747      -0.29823495      -0.14061266
Si      14.77881866      12.42434290      13.92092698       0.47044353       0.05865764      -0.22110394
Si      12.59037125      15.31703054      12.41690790      -0.31293146      -0.21376390       0.28371112
Si      13.19709103      14.06209557      14.19190822       0.04684030      -0.13661113       0.05251981
5
Lattice="27.25 0.0 0.0 0.0 27.25 0.0 0.0 0.0 27.25" Properties=species:S:1:pos:R:3:forces:R:3 energy=-41.2498049002634 bias_energy=-41.249585687879254 name=N pbc="T T T"
Si      14.49751063      14.45189501      12.43280490      -0.13575290       0.60465997       0.04293412
Si      13.16159200      11.89166906      15.09799047      -0.08246699      -0.25818951      -0.14365809
Si      14.89088147      12.52366064      13.83201051       0.44711254       0.04564008      -0.22830738
Si      12.42585820      15.29086720      12.54399688      -0.30197292      -0.25006780       0.29204554
Si      13.14915770      13.96690809      14.21819723       0.07308027      -0.14204274       0.03698581
5
Lattice="27.25 0.0 0.0 0.0 27.25 0.0 0.0 0.0 27.25" Properties=species:S:1:pos:R:3:forces:R:3 energy=-41.24985379196021 bias_energy=-41.24970861299259 name=N pbc="T T T"
Si      14.40567019      14.65420508      12.52665536      -0.15963444       0.61059871       0.05893396
Si      13.35574030      11.71468689      14.92422820      -0.08389804      -0.22099771      -0.14244557
Si      14.99593082      12.64470434      13.73326577       0.43017289       0.03009168      -0.23686362
Si      12.25663234      15.26124452      12.70095884      -0.28608937      -0.28026504       0.29972024
Si      13.11102635      13.85015917      14.23989183       0.09944897      -0.13942764       0.02065499
5
Lattice="27.25 0.0 0.0 0.0 27.25 0.0 0.0 0.0 27.25" Properties=species:S:1:pos:R:3:forces:R:3 energy=-41.249806342480326 bias_energy=-41.24971432042554 name=N pbc="T T T"
Si      14.27645578      14.84310276      12.64209490      -0.18445511       0.60797783       0.07296177
Si      13.57402398      11.56652167      14.70862170      -0.09586711      -0.18160837      -0.13724446
Si      15.08818988      12.78232911      13.61059355       0.41694112       0.01041793      -0.24723462
Si      12.08312470      15.20744634      12.89909851      -0.26561131      -0.30850168       0.31002122
Si      13.10320566      13.72560012      14.26459134       0.12899241      -0.12828571       0.00149609
5
Lattice="27.25 0.0 0.0 0.0 27.25 0.0 0.0 0.0 27.25" Properties=species:S:1:pos:R:3:forces:R:3 energy=-41.24972747689123 bias_energy=-41.24964474086667 name=N pbc="T T T"
Si      14.11536396      15.00829219      12.77649625      -0.20747995       0.59531386       0.08303126
Si      13.81373779      11.45852207      14.45272425      -0.12117418      -0.14683451      -0.12334854
Si      15.15594798      12.93461875      13.45434988       0.41099188      -0.00650650      -0.26081796
Si      11.91272387      15.12489249      13.15124359      -0.23781315      -0.33447860       0.32044751
Si      13.12722639      13.59867450      14.29018603       0.15547540      -0.10749424      -0.01931226
5
Lattice="27.25 0.0 0.0 0.0 27.25 0.0 0.0 0.0 27.25" Properties=species:S:1:pos:R:3:forces:R:3 energy=-41.249955969413975 bias_energy=-41.249847630253 name=N pbc="T T T"
Si      13.92755014      15.13669981      12.92249630      -0.22783876       0.57546745       0.08774423
Si      14.05648737      11.40142156      14.15501335      -0.15756743      -0.12108627      -0.10518645
Si      15.18959500      13.10383655      13.26265194       0.41142585      -0.01965508      -0.27045062
Si      11.76303186      15.00800464      13.46902504      -0.20206373      -0.35740601       0.32954429
Si      13.18833563      13.47503744      14.31581337       0.17604406      -0.07732009      -0.04165145
5
Lattice="27.25 0.0 0.0 0.0 27.25 0.0 0.0 0.0 27.25" Properties=species:S:1:pos:R:3:forces:R:3 energy=-41.25030776748886 bias_energy=-41.250160842144204 name=N pbc="T T T"
Si      13.72056680      15.22602623      13.08332401      -0.24344148       0.55225372       0.08705935
Si      14.27932563      11.40171636      13.80876971      -0.20331848      -0.10785853      -0.08360883
Si      15.17335369      13.29381127      13.03139642       0.41809629      -0.02850641      -0.27180770
Si      11.65968142      14.84544494      13.86402121      -0.15786315      -0.37646046       0.33382329
Si      13.29207246      13.35800120      14.33748865       0.18652682      -0.03942831      -0.06546611
5
Lattice="27.25 0.0 0.0 0.0 27.25 0.0 0.0 0.0 27.25" Properties=species:S:1:pos:R:3:forces:R:3 energy=-41.250095189241115 bias_energy=-41.24999439085949 name=N pbc="T T T"
Si      13.48525880      15.27524147      13.29190087      -0.25488974       0.52928921       0.08324722
Si      14.45666663      11.47226788      13.36325490      -0.25643871      -0.10895971      -0.05854934
Si      15.07656747      13.53137945      12.74992170       0.43440551      -0.03514114      -0.26076295
Si      11.65501010      14.60546595      14.38112838      -0.10449429      -0.38910915       0.32519997
Si      13.45149701      13.24064525      14.33879415       0.18141724       0.00392079      -0.08913490
5
Lattice="27.25 0.0 0.0 0.0 27.25 0.0 0.0 0.0 27.25" Properties=species:S:1:pos:R:3:forces:R:3 energy=-41.25032375857856 bias_energy=-41.24971030782842 name=N pbc="T T T"
Si      13.31384151      15.28723111      13.67810341      -0.26317491       0.50617538       0.08015957
Si      14.48877789      11.65438723      12.73986391      -0.31701506      -0.12686363      -0.02271488
Si      14.76945893      13.84460884      12.40294744       0.47015258      -0.04390906      -0.23648663
Si      11.88068069      14.23962896      15.03396851      -0.04384019      -0.38680906       0.28726004
Si      13.67224098      13.09914386      14.27011673       0.15387758       0.05140637      -0.10821810
5
Lattice="27.25 0.0 0.0 0.0 27.25 0.0 0.0 0.0 27.25" Properties=species:S:1:pos:R:3:forces:R:3 energy=-41.24062055682496 bias_energy=-41.23344172704894 name=N pbc="T T T"
Si      13.80629421      15.14584791      14.35430835      -0.26494617       0.46649751       0.05731169
Si      13.49309007      12.14971180      11.84822597      -0.37642473      -0.16689283       0.03587288
Si      14.47048495      14.13543228      12.22135391       0.55196501      -0.04748568      -0.20194148
Si      12.65344396      13.81593078      15.72729011      -0.00324426      -0.34781884       0.20556985
Si      13.70168681      12.87807723      13.97382167       0.09265014       0.09569983      -0.09681294
5
Lattice="27.25 0.0 0.0 0.0 27.25 0.0 0.0 0.0 27.25" Properties=species:S:1:pos:R:3:forces:R:3 energy=-41.21269197852402 bias_energy=-41.19745992415787 name=N pbc="T T T"
Si      13.31943314      15.30205565      13.88680688      -0.36385083       0.48610869       0.00564885
Si      13.95141780      11.73604600      12.35954113      -0.28428853      -0.15874591       0.12511296
Si      14.49135595      13.90246189      12.13008095       0.57035538      -0.12652613      -0.24051983
Si      12.48347199      14.11033603      15.57807183      -0.01968534      -0.27753347       0.13111283
Si      13.87932113      13.07410045      14.17049921       0.09746932       0.07669682      -0.02135481
5
Lattice="27.25 0.0 0.0 0.0 27.25 0.0 0.0 0.0 27.25" Properties=species:S:1:pos:R:3:forces:R:3 energy=-41.145881175525886 bias_energy=-41.120946357433446 name=N pbc="T T T"
Si      13.51709910      15.32160695      14.08632045      -0.27920588       0.47988750       0.10620339
Si      13.76925595      11.88341933      12.15086323      -0.33573868      -0.13453896       0.06944600
Si      14.89835069      13.81581383      12.32544512       0.60374054      -0.11149941      -0.21072589
Si      12.26437975      14.09865159      15.45866364      -0.04415923      -0.30445258       0.11799291
Si      13.67591451      13.00550829      14.10370756       0.05536324       0.07060345      -0.08291640
5
Lattice="27.25 0.0 0.0 0.0 27.25 0.0 0.0 0.0 27.25" Properties=species:S:1:pos:R:3:forces:R:3 energy=-41.06176795040825 bias_energy=-41.02513072133339 name=N pbc="T T T"
Si      13.15758493      15.33082744      13.99615522      -0.34598601       0.47195843       0.07017152
Si      13.87298241      11.81294272      12.28264942      -0.25162356      -0.12722369       0.08070854
Si      14.74847990      13.85748739      12.10891189       0.53597071      -0.15773483      -0.30779322
Si      12.44263847      13.99091495      15.61058881      -0.04497721      -0.28779755       0.22170599
Si      13.90331429      13.13282750      14.12669465       0.10661607       0.10079765      -0.06479283
5
Lattice="27.25 0.0 0.0 0.0 27.25 0.0 0.0 0.0 27.25" Properties=species:S:1:pos:R:3:forces:R:3 energy=-40.951944395170415 bias_energy=-40.90488221024991 name=N pbc="T T T"
Si      13.33429092      15.40733994      14.15967685      -0.27394258       0.44318620       0.13169720
Si      13.73707587      11.87096730      12.18107902      -0.30414542      -0.11453775       0.05777994
Si      14.99589678      13.69735700      12.20817162       0.60495396      -0.17774064      -0.25936606
Si      12.28552401      14.02104199      15.51146770      -0.07887204      -0.27067841       0.17355222
Si      13.77221243      13.12829377      14.06460482       0.05200609       0.11977059      -0.10366329
