5
Lattice="27.25 0.0 0.0 0.0 27.25 0.0 0.0 0.0 27.25" Properties=species:S:1:pos:R:3:forces:R:3 energy=-43.72149741017848 bias_energy=0 name=N0 pbc="T T T"
Si      12.35808672      13.94560418      13.05454489      -0.08366761      -0.17861125      -0.20034922
Si      12.81443805      12.18056216      14.60976758      -0.14448643      -0.15544816       0.37571754
Si      14.43422760      15.06840494      12.63772999       0.30494739       0.73518677      -0.10336361
Si      14.48909912      12.69606332      12.97451862      -0.08033665      -0.18435061      -0.01955374
Si      14.02914850      14.23436541      14.84843891       0.00354330      -0.21677674      -0.05245096
5
Lattice="27.25 0.0 0.0 0.0 27.25 0.0 0.0 0.0 27.25" Properties=species:S:1:pos:R:3:forces:R:3 energy=-43.72041850473126 bias_energy=-43.714396756744904 name=N pbc="T T T"
Si      13.12690164      13.36980465      12.31074983       0.06002045      -0.25501354      -0.31692222
Si      12.81967411      11.98737617      14.25122435      -0.15936145      -0.06832205       0.40165856
Si      14.42797486      15.27126449      13.01207423       0.23228958       0.67521753       0.11623806
Si      14.91081308      13.13636973      13.99456318      -0.14903022      -0.10140937      -0.08532871
Si      12.83963632      14.36018495      14.55638842       0.01608163      -0.25047258      -0.11564569
5
Lattice="27.25 0.0 0.0 0.0 27.25 0.0 0.0 0.0 27.25" Properties=species:S:1:pos:R:3:forces:R:3 energy=-43.67453165535224 bias_energy=-43.62830479881093 name=N pbc="T T T"
Si      12.97927991      13.12069105      12.44322881       0.02162747      -0.19539712      -0.12406940
Si      12.77909980      12.26423803      14.73365809      -0.17718913      -0.08339351       0.54807072
Si      14.48353493      15.05882159      12.61274626       0.23431011       0.62598534      -0.00779927
Si      14.89559943      13.07781090      13.93279423      -0.11014566      -0.18310006      -0.21870097
Si      12.98748594      14.60343844      14.40257260       0.03139720      -0.16409464      -0.19750108
5
Lattice="27.25 0.0 0.0 0.0 27.25 0.0 0.0 0.0 27.25" Properties=species:S:1:pos:R:3:forces:R:3 energy=-43.611255235234275 bias_energy=-43.53081580817862 name=N pbc="T T T"
Si      13.06392628      13.32346413      12.32761490       0.04236875      -0.12063377      -0.18530419
Si      12.75037365      12.08336882      14.45238884      -0.12831883      -0.10714968       0.35891654
Si      14.50570151      15.25955234      12.95719868       0.23989514       0.72276443       0.14427445
Si      14.88917772      13.03099848      13.87650162      -0.12543817      -0.22748486      -0.18555869
Si      12.91582084      14.42761623      14.51129597      -0.02850689      -0.26749611      -0.13232812
5
Lattice="27.25 0.0 0.0 0.0 27.25 0.0 0.0 0.0 27.25" Properties=species:S:1:pos:R:3:forces:R:3 energy=-43.60514568428565 bias_energy=-43.33108975243673 name=N pbc="T T T"
Si      13.05682044      13.31519078      12.33376753       0.00407937      -0.20080903      -0.15328825
Si      12.75442407      12.09023428      14.46917079      -0.13092289      -0.07536296       0.50153993
Si      14.50246625      15.25732723      12.94345829       0.21749611       0.66920551       0.03279266
Si      14.88933469      13.02942970      13.86661182      -0.12138553      -0.19071201      -0.18958175
Si      12.92195455      14.43281801      14.51199157       0.03073294      -0.20232152      -0.19146259
5
Lattice="27.25 0.0 0.0 0.0 27.25 0.0 0.0 0.0 27.25" Properties=species:S:1:pos:R:3:forces:R:3 energy=-43.3749035845875 bias_energy=-43.208406069902864 name=N pbc="T T T"
Si      12.97541180      13.17863661      12.38713635       0.00443888      -0.19822033      -0.15536141
Si      12.82697209      12.18566352      14.72437589      -0.13072370      -0.07520302       0.49508389
Si      14.46295819      15.25294341      12.80217927       0.22107865       0.67182943       0.03846842
Si      14.89515010      13.01558786      13.76933837      -0.12337055      -0.19330377      -0.18754240
Si      12.96450782      14.49216860      14.44197012       0.02857672      -0.20510230      -0.19064850
5
Lattice="27.25 0.0 0.0 0.0 27.25 0.0 0.0 0.0 27.25" Properties=species:S:1:pos:R:3:forces:R:3 energy=-43.37394861280376 bias_energy=-43.00844525548815 name=N pbc="T T T"
Si      12.97554039      13.18782662      12.38501780      -0.01369413      -0.18670838      -0.17896335
Si      12.82506462      12.18110370      14.71846514      -0.12049774      -0.07488812       0.41087806
Si      14.46793183      15.25481754      12.81045615       0.26537790       0.69920038       0.10405906
Si      14.89543050      13.01271345      13.76574250      -0.14368617      -0.20956670      -0.14953884
Si      12.96103265      14.48853869      14.44531842       0.01250015      -0.22803718      -0.18643493
5
Lattice="27.25 0.0 0.0 0.0 27.25 0.0 0.0 0.0 27.25" Properties=species:S:1:pos:R:3:forces:R:3 energy=-43.09737920179113 bias_energy=-42.852469218806235 name=N pbc="T T T"
Si      13.05145974      13.24448330      12.30481727      -0.01280985      -0.18728099      -0.17959377
Si      12.75167726      12.13800472      14.62650953      -0.12034347      -0.07476944       0.41538171
Si      14.56184337      15.34127101      13.00795075       0.26388959       0.69773158       0.10065697
Si      14.86244164      12.96264389      13.78018754      -0.14394491      -0.20761150      -0.14973674
Si      12.89757799      14.43859707      14.40553490       0.01320864      -0.22806965      -0.18670817
5
Lattice="27.25 0.0 0.0 0.0 27.25 0.0 0.0 0.0 27.25" Properties=species:S:1:pos:R:3:forces:R:3 energy=-43.07761547459391 bias_energy=-42.652431270380106 name=N pbc="T T T"
Si      13.04568247      13.23302015      12.30877017      -0.05178391      -0.19711684      -0.13273445
Si      12.74945494      12.13236967      14.62881615      -0.15342107      -0.18766503       0.41546367
Si      14.56695426      15.34846539      12.99741979       0.27870340       0.72064794      -0.03980328
Si      14.86245578      12.97117728      13.78791468      -0.13410004      -0.14590636      -0.08718391
Si      12.90045256      14.43996752      14.40207920       0.06060161      -0.18995970      -0.15574204
5
Lattice="27.25 0.0 0.0 0.0 27.25 0.0 0.0 0.0 27.25" Properties=species:S:1:pos:R:3:forces:R:3 energy=-42.777363223756645 bias_energy=-42.484093867267376 name=N pbc="T T T"
Si      13.02910952      13.10194047      12.34685717      -0.05675412      -0.20341741      -0.12927044
Si      12.78347610      12.13067255      14.74142444      -0.15281856      -0.18577057       0.40800406
Si      14.56016116      15.40078655      12.89428624       0.28337346       0.72378893      -0.03661754
Si      14.86494418      13.03091990      13.81548381      -0.13128399      -0.14684174      -0.08804099
Si      12.88730904      14.46068054      14.32694834       0.05748321      -0.18775922      -0.15407509
5
Lattice="27.25 0.0 0.0 0.0 27.25 0.0 0.0 0.0 27.25" Properties=species:S:1:pos:R:3:forces:R:3 energy=-42.728509603782065 bias_energy=-42.28419141755191 name=N pbc="T T T"
Si      13.02181601      13.08443713      12.35312757      -0.07743115      -0.22365551      -0.11682334
Si      12.78057169      12.12602016      14.73622249      -0.14298008      -0.17205323       0.37077342
Si      14.56825905      15.41461024      12.89888586       0.30111385       0.73869996      -0.02199519
Si      14.86572653      13.03571490      13.81687820      -0.12577693      -0.15833281      -0.08384986
Si      12.88862672      14.46421757      14.31988589       0.04507431      -0.18465840      -0.14810503
5
Lattice="27.25 0.0 0.0 0.0 27.25 0.0 0.0 0.0 27.25" Properties=species:S:1:pos:R:3:forces:R:3 energy=-42.19196825689221 bias_energy=-42.17734784750839 name=N pbc="T T T"
Si      13.40479368      12.19806828      12.66845787      -0.08403776      -0.23408259      -0.10964673
Si      12.91508345      12.57347880      15.00044901      -0.14176883      -0.16935789       0.36046261
Si      14.41444513      15.56024477      13.05860426       0.30359621       0.74207959      -0.01911384
Si      14.91318310      13.49674964      14.02607564      -0.12419226      -0.15715353      -0.08318147
Si      12.47749464      14.29645850      13.37141322       0.04640264      -0.18148558      -0.14852057
5
Lattice="27.25 0.0 0.0 0.0 27.25 0.0 0.0 0.0 27.25" Properties=species:S:1:pos:R:3:forces:R:3 energy=-42.16681542557296 bias_energy=-42.15189896655916 name=N pbc="T T T"
Si      13.27509403      12.01786299      12.73480269      -0.15378351      -0.30682538      -0.10814881
Si      12.93194926      12.72451125      15.00385753      -0.10793213      -0.11670452       0.26367138
Si      14.43157743      15.68081316      13.40178484       0.28114361       0.73166095       0.04195062
Si      14.91441426      13.42471212      13.80430068      -0.21500054      -0.09784828      -0.12895763
Si      12.57196501      14.27710047      13.18025426       0.19557257      -0.21028277      -0.06851555
5
Lattice="27.25 0.0 0.0 0.0 27.25 0.0 0.0 0.0 27.25" Properties=species:S:1:pos:R:3:forces:R:3 energy=-42.097801155150506 bias_energy=-42.02723596717949 name=N pbc="T T T"
Si      13.22773554      12.04323382      12.73301052      -0.11820231      -0.16802784      -0.11570232
Si      12.86456428      12.62740825      15.02471515      -0.16189676      -0.24453863       0.30569186
Si      14.55287059      15.69132621      13.19671281       0.32222049       0.69084393      -0.18034435
Si      14.84113848      13.44510662      13.87969269      -0.24573529      -0.07152036      -0.03293429
Si      12.63869112      14.31792511      13.29086883       0.20361387      -0.20675710       0.02328909
5
Lattice="27.25 0.0 0.0 0.0 27.25 0.0 0.0 0.0 27.25" Properties=species:S:1:pos:R:3:forces:R:3 energy=-41.9752836094502 bias_energy=-41.874990141236005 name=N pbc="T T T"
Si      12.92333597      11.99508882      12.84233788      -0.14647693      -0.20342827      -0.11507326
Si      12.86593765      12.80740024      15.08352386      -0.11875553      -0.15127810       0.30154255
Si      14.75744661      15.67491304      13.31713114       0.29021022       0.74168553      -0.02963723
Si      14.81957724      13.26496120      13.68545563      -0.19575970      -0.13936309      -0.09032648
Si      12.75870253      14.38263670      13.19655149       0.17078194      -0.24761607      -0.06650558
5
Lattice="27.25 0.0 0.0 0.0 27.25 0.0 0.0 0.0 27.25" Properties=species:S:1:pos:R:3:forces:R:3 energy=-41.91452579230744 bias_energy=-41.67553626335091 name=N pbc="T T T"
Si      12.91590659      11.97578329      12.84419913      -0.12842203      -0.23318427      -0.11532686
Si      12.86746832      12.79483631      15.08514983      -0.11735007      -0.18168931       0.25011793
Si      14.74908547      15.71359223      13.32131173       0.27735633       0.78430937      -0.09182509
Si      14.81888254      13.26691590      13.68452658      -0.14328804      -0.14193608      -0.01260050
Si      12.77365708      14.37387227      13.18981273       0.11170381      -0.22749970      -0.03036548
5
Lattice="27.25 0.0 0.0 0.0 27.25 0.0 0.0 0.0 27.25" Properties=species:S:1:pos:R:3:forces:R:3 energy=-41.70277605373765 bias_energy=-41.52890935754094 name=N pbc="T T T"
Si      13.06556595      11.84308464      12.89691720      -0.12575577      -0.22735938      -0.11679582
Si      12.86731027      12.78879748      15.07982144      -0.11284374      -0.17053056       0.24856308
Si      14.60662543      15.88407019      13.32130308       0.27297232       0.79027649      -0.09151538
Si      14.82653627      13.35155420      13.74387034      -0.13487524      -0.16966974      -0.00717821
Si      12.75896208      14.25749349      13.08308793       0.10050243      -0.22271682      -0.03307366
5
Lattice="27.25 0.0 0.0 0.0 27.25 0.0 0.0 0.0 27.25" Properties=species:S:1:pos:R:3:forces:R:3 energy=-41.72032072466933 bias_energy=-41.329378577386116 name=N pbc="T T T"
Si      13.05946334      11.84517128      12.89566445      -0.12545128      -0.20583661      -0.12231168
Si      12.86045281      12.79815621      15.07821814      -0.10093783      -0.15155625       0.24332855
Si      14.60651875      15.87529552      13.32720672       0.29816897       0.79030892      -0.09225183
Si      14.83035723      13.34568718      13.74397008      -0.12420882      -0.21529795      -0.00293532
Si      12.76820787      14.26068982      13.07994061       0.05242895      -0.21761812      -0.02582972
5
Lattice="27.25 0.0 0.0 0.0 27.25 0.0 0.0 0.0 27.25" Properties=species:S:1:pos:R:3:forces:R:3 energy=-41.39759362251569 bias_energy=-41.1939362798573 name=N pbc="T T T"
Si      12.95091767      11.86457075      12.87494800      -0.12598822      -0.20643694      -0.12347747
Si      12.82097788      12.78715069      15.08056630      -0.10184689      -0.15557377       0.24491502
Si      14.72334440      15.94093623      13.30304485       0.29478932       0.79005718      -0.09608401
Si      14.80473653      13.23106869      13.76084109      -0.12563749      -0.21414789      -0.00219655
Si      12.82502352      14.30127364      13.10559976       0.05868328      -0.21389857      -0.02315699
5
Lattice="27.25 0.0 0.0 0.0 27.25 0.0 0.0 0.0 27.25" Properties=species:S:1:pos:R:3:forces:R:3 energy=-41.34482432053455 bias_energy=-40.994810738660995 name=N pbc="T T T"
Si      12.95288182      11.86528826      12.87397327      -0.09554061      -0.17166462      -0.11034645
Si      12.80988843      12.76752361      15.08231321      -0.12949000      -0.21136567       0.25071350
Si      14.73383746      15.95508814      13.28970325       0.31121361       0.78356511      -0.13386658
Si      14.80148717      13.23187219      13.76151225      -0.12064203      -0.19942815       0.00673878
Si      12.82690512      14.30522779      13.11749801       0.03445904      -0.20110667      -0.01323926
5
Lattice="27.25 0.0 0.0 0.0 27.25 0.0 0.0 0.0 27.25" Properties=species:S:1:pos:R:3:forces:R:3 energy=-41.072604506295214 bias_energy=-40.853967646241536 name=N pbc="T T T"
Si      12.97515347      11.97508833      12.72698987      -0.09559400      -0.17149962      -0.10930786
Si      12.78273478      12.53132854      15.03843586      -0.12776257      -0.20750354       0.25057467
Si      14.76150754      16.03977088      13.23405092       0.31248043       0.78438525      -0.13070310
Si      14.78022348      13.21831473      13.80958077      -0.11837954      -0.20219484       0.00594385
Si      12.82538073      14.36049752      13.31594258       0.02925569      -0.20318726      -0.01650756
