5
Lattice="27.25 0.0 0.0 0.0 27.25 0.0 0.0 0.0 27.25" Properties=species:S:1:pos:R:3:forces:R:3 energy=-43.721454849425555 bias_energy=0 name=N0 pbc="T T T"
Si      14.68221554      13.06833828      12.84762023       0.03535717      -0.03033894      -0.03030988
Si      13.18653475      12.96843538      14.81067514       0.18252292      -0.01738207       0.12345208
Si      14.91008683      14.62499755      14.65645595      -0.50316018      -0.04807183      -0.33764678
Si      12.34105063      12.62337350      12.59614593       0.61604336       0.17822520       0.22521546
Si      13.00511226      14.83985529      13.21410275      -0.33076326      -0.08243236       0.01928913
5
Lattice="27.25 0.0 0.0 0.0 27.25 0.0 0.0 0.0 27.25" Properties=species:S:1:pos:R:3:forces:R:3 energy=-43.72138086371419 bias_energy=-43.721239643555016 name=N pbc="T T T"
Si      14.74425958      13.22520723      12.83813369       0.12221599       0.05348382      -0.02074325
Si      13.31907860      12.93337883      14.83419196       0.22368734      -0.07375550       0.15812537
Si      14.75026638      14.84132740      14.61018687      -0.46707318       0.17016141      -0.31400386
Si      12.49838564      12.40937250      12.64068073       0.56658797      -0.03788644       0.14569230
Si      12.81300980      14.71571404      13.20180676      -0.44541813      -0.11200329       0.03092944
5
Lattice="27.25 0.0 0.0 0.0 27.25 0.0 0.0 0.0 27.25" Properties=species:S:1:pos:R:3:forces:R:3 energy=-43.72143673455838 bias_energy=-43.72118920891869 name=N pbc="T T T"
Si      14.77967479      13.36334526      12.83112505       0.09985299       0.06768216      -0.01682643
Si      13.43451167      12.93421436      14.85824605       0.22454840      -0.03785739       0.14835517
Si      14.57883645      15.01624436      14.55673736      -0.48941008       0.15387715      -0.31321885
Si      12.67047586      12.23259705      12.69474908       0.57590446      -0.03170115       0.15747235
Si      12.66150122      14.57859896      13.18414245      -0.41089576      -0.15200077       0.02421775
5
Lattice="27.25 0.0 0.0 0.0 27.25 0.0 0.0 0.0 27.25" Properties=species:S:1:pos:R:3:forces:R:3 energy=-43.72152854286357 bias_energy=-43.72112997605379 name=N pbc="T T T"
Si      14.79717807      13.48636099      12.82453312       0.07931725       0.07548027      -0.01616639
Si      13.53596990      12.95777566      14.88169764       0.21972085      -0.00834978       0.14062644
Si      14.39994141      15.15773999      14.49638102      -0.50657485       0.13112252      -0.31544518
Si      12.84931123      12.09066016      12.75565445       0.58477201      -0.01769426       0.16929492
Si      12.54259939      14.43246320      13.16673376      -0.37723527      -0.18055874       0.02169021
