5
Lattice="27.25 0.0 0.0 0.0 27.25 0.0 0.0 0.0 27.25" Properties=species:S:1:pos:R:3:forces:R:3 energy=-43.72150588907091 bias_energy=0 name=N0 pbc="T T T"
Si      13.89189944      14.89182315      14.22107590      -0.00713449       0.05457678      -0.17811803
Si      12.30345955      13.09146045      13.64973644      -0.06995062      -0.08772361       0.02202693
Si      13.24360655      14.49247152      11.94888141       0.34310590      -0.25140101       0.42982044
Si      14.00924030      12.75760440      15.30033447      -0.13440000       0.40036269      -0.54914272
Si      14.67679416      12.89164048      13.00497178      -0.13162079      -0.11581485       0.27541337
5
Lattice="27.25 0.0 0.0 0.0 27.25 0.0 0.0 0.0 27.25" Properties=species:S:1:pos:R:3:forces:R:3 energy=-43.72147225682782 bias_energy=-43.721215107469504 name=N pbc="T T T"
Si      13.92572860      14.94421219      14.07677621      -0.02741171       0.16460683      -0.22014546
Si      12.27209911      13.17170650      13.59922130      -0.15274743      -0.04459024      -0.02440859
Si      13.43714004      14.28418812      11.82534224       0.46040592      -0.30588279       0.23352558
Si      13.81337995      12.96280439      15.42426005      -0.20229248       0.48093620      -0.28797798
Si      14.67665231      12.76208879      13.19940019      -0.07795430      -0.29507001       0.29900645
5
Lattice="27.25 0.0 0.0 0.0 27.25 0.0 0.0 0.0 27.25" Properties=species:S:1:pos:R:3:forces:R:3 energy=-43.72149685721104 bias_energy=-43.72137765893032 name=N pbc="T T T"
Si      13.94868991      14.97653565      13.94405440      -0.02068139       0.13689388      -0.22963079
Si      12.25966851      13.22248047      13.52961283      -0.12347021      -0.05247710      -0.04987298
Si      13.62502805      14.06818668      11.75115613       0.44579790      -0.32424008       0.24172707
Si      13.62508195      13.17915505      15.49834595      -0.21621305       0.48799531      -0.29000272
Si      14.66653159      12.67864215      13.40183070      -0.08543324      -0.24817201       0.32777943
5
Lattice="27.25 0.0 0.0 0.0 27.25 0.0 0.0 0.0 27.25" Properties=species:S:1:pos:R:3:forces:R:3 energy=-43.72140735457362 bias_energy=-43.721283131143636 name=N pbc="T T T"
Si      13.97015558      14.99386747      13.82167746      -0.01317591       0.10950963      -0.23378289
Si      12.25842608      13.25171206      13.45343420      -0.09810976      -0.06174961      -0.06288578
Si      13.80188424      13.85569648      11.71948091       0.43080394      -0.33190531       0.26322099
Si      13.44919934      13.39201150      15.53002898      -0.22070651       0.48856952      -0.30825619
Si      14.64533476      12.63171249      13.60037846      -0.09881175      -0.20442423       0.34170387
5
Lattice="27.25 0.0 0.0 0.0 27.25 0.0 0.0 0.0 27.25" Properties=species:S:1:pos:R:3:forces:R:3 energy=-43.721494404626625 bias_energy=-43.721312416085716 name=N pbc="T T T"
Si      13.99331545      14.99978002      13.71049633      -0.00551869       0.08471785      -0.23428398
Si      12.26731965      13.26507939      13.37781847      -0.07695815      -0.07141881      -0.06758065
Si      13.96220785      13.65294264      11.72838173       0.41639759      -0.33283650       0.28839223
Si      13.28682391      13.59419535      15.52184821      -0.22014295       0.48522234      -0.33281105
Si      14.61533314      12.61300260      13.78645526      -0.11377779      -0.16568488       0.34628345
5
Lattice="27.25 0.0 0.0 0.0 27.25 0.0 0.0 0.0 27.25" Properties=species:S:1:pos:R:3:forces:R:3 energy=-43.721508299209034 bias_energy=-43.72117430952396 name=N pbc="T T T"
Si      14.01798161      14.99560854      13.60962215       0.00128135       0.06349229      -0.23183808
Si      12.28270029      13.26553400      13.30655083      -0.05993665      -0.08079073      -0.06768519
Si      14.10718274      13.46553171      11.76673599       0.40235766      -0.32887051       0.31497221
Si      13.14130794      13.78178829      15.48398081      -0.21525765       0.47896489      -0.36005032
Si      14.57582742      12.61653746      13.95811022      -0.12844471      -0.13279593       0.34460138
