5
Lattice="27.25 0.0 0.0 0.0 27.25 0.0 0.0 0.0 27.25" Properties=species:S:1:pos:R:3:forces:R:3 energy=-41.25014824046991 bias_energy=0 name=N0 pbc="T T T"
Si      13.33580171      13.51416556      11.95729995       0.12910747      -0.15112488      -0.33998696
Si      13.06002384      13.82909353      15.86675496       0.11966524       0.21155207       0.11833182
Si      11.98638109      13.35158697      13.96788139       0.35697675       0.33826351       0.00159026
Si      15.46285888      14.11255368      12.29288626      -0.48576333      -0.41128644       0.31748803
Si      14.27993448      13.31760027      14.04017744      -0.11998613       0.01259575      -0.09742315
5
Lattice="27.25 0.0 0.0 0.0 27.25 0.0 0.0 0.0 27.25" Properties=species:S:1:pos:R:3:forces:R:3 energy=-41.25022569000767 bias_energy=-41.25013293757908 name=N pbc="T T T"
Si      13.29498928      13.41363367      11.97793091       0.03812402      -0.26685236      -0.35756919
Si      13.12939465      14.08102581      15.84986205       0.17234785       0.29566875       0.08567465
Si      11.97031076      13.62520675      13.99123291       0.25688660       0.47351632       0.04968157
Si      15.49421186      13.73018633      12.24638713      -0.29478244      -0.45347607       0.23944986
Si      14.23609346      13.27494743      14.05958700      -0.17257603      -0.04885664      -0.01723689
