5
Lattice="27.25 0.0 0.0 0.0 27.25 0.0 0.0 0.0 27.25" Properties=species:S:1:pos:R:3:forces:R:3 energy=-43.72147265688566 bias_energy=0 name=N0 pbc="T T T"
Si      14.37384656      13.85310766      12.43353572      -0.03594584       0.03448133      -0.02161961
Si      14.61907605      15.01523727      14.51427411      -0.34009255       0.24353571       0.25415484
Si      12.41584474      14.34476049      13.85167695      -0.11978928       0.11747536      -0.13527254
Si      12.63189931      12.23217511      12.73792094       0.56393605      -0.58853295      -0.05054645
Si      14.08433335      12.67971947      14.58759228      -0.06810838       0.19304056      -0.04671624
5
Lattice="27.25 0.0 0.0 0.0 27.25 0.0 0.0 0.0 27.25" Properties=species:S:1:pos:R:3:forces:R:3 energy=-43.72137567611086 bias_energy=-43.720872185498855 name=N pbc="T T T"
Si      14.43158894      13.89339060      12.48138943      -0.01177336       0.09477800       0.01456895
Si      14.41476495      15.12929137      14.53049480      -0.38899101       0.24514471       0.21274204
Si      12.33696073      14.22379777      13.74547623      -0.14504829      -0.01571314      -0.22977100
Si      12.83515307      12.12212706      12.71750778       0.58124635      -0.52706060      -0.02934136
Si      14.10653232      12.75639321      14.65013175      -0.03543370       0.20285103       0.03180136
5
Lattice="27.25 0.0 0.0 0.0 27.25 0.0 0.0 0.0 27.25" Properties=species:S:1:pos:R:3:forces:R:3 energy=-43.721495672596426 bias_energy=-43.721231395606836 name=N pbc="T T T"
Si      14.48338679      13.94534626      12.53385050      -0.02593291       0.09716268       0.01731410
Si      14.18547193      15.22823160      14.53451366      -0.40339932       0.22924502       0.20296969
Si      12.27831828      14.08941754      13.63231479      -0.12117700      -0.03104835      -0.23527991
Si      13.06404714      12.02338526      12.71436580       0.60226721      -0.50299581      -0.00777975
Si      14.11377586      12.83861933      14.70995524      -0.05175798       0.20763646       0.02277587
