5
Lattice="27.25 0.0 0.0 0.0 27.25 0.0 0.0 0.0 27.25" Properties=species:S:1:pos:R:3:forces:R:3 energy=-43.721495807336055 bias_energy=0 name=N0 pbc="T T T"
Si      12.16081434      12.82641970      14.59021310       0.38932839       0.43178776      -0.24324595
Si      15.08959829      14.42377612      12.65891545      -0.55661799      -0.26605918       0.23334668
Si      13.55586055      12.58005238      12.65769873       0.19663594      -0.13842808       0.13524720
Si      14.46000781      13.48096874      14.77212163      -0.08945266       0.17535545      -0.07576966
Si      12.85871901      14.81378306      13.44605109       0.06010632      -0.20265595      -0.04957827
5
Lattice="27.25 0.0 0.0 0.0 27.25 0.0 0.0 0.0 27.25" Properties=species:S:1:pos:R:3:forces:R:3 energy=-43.72142223527834 bias_energy=-43.72130061458413 name=N pbc="T T T"
Si      12.17296581      12.92472235      14.68147760       0.25133767       0.43976600      -0.12485698
Si      15.07807164      14.32238427      12.56817471      -0.45292978      -0.22703682       0.05761033
Si      13.66800953      12.41123506      12.88046921       0.28780878      -0.37185463       0.24753495
Si      14.41381681      13.77119222      14.80391104      -0.02619860       0.30640926       0.06691156
Si      12.79213621      14.69546610      13.19096744      -0.06001806      -0.14728381      -0.24719985
5
Lattice="27.25 0.0 0.0 0.0 27.25 0.0 0.0 0.0 27.25" Properties=species:S:1:pos:R:3:forces:R:3 energy=-43.72145052630054 bias_energy=-43.72134155316249 name=N pbc="T T T"
Si      12.19176913      13.04993027      14.77696017       0.26330186       0.44567126      -0.10741612
Si      15.05899461      14.19923845      12.47354987      -0.44046129      -0.25758418       0.05096246
Si      13.75754444      12.29674801      13.12450493       0.26151215      -0.30678371       0.29312794
Si      14.37596680      14.03879805      14.76462028      -0.03427720       0.32293557       0.00703930
Si      12.74072501      14.54028523      12.98536475      -0.05007552      -0.20423893      -0.24371358
5
Lattice="27.25 0.0 0.0 0.0 27.25 0.0 0.0 0.0 27.25" Properties=species:S:1:pos:R:3:forces:R:3 energy=-43.721428045711605 bias_energy=-43.72132790806999 name=N pbc="T T T"
Si      12.21912006      13.20019571      14.87197510       0.27676146       0.45813171      -0.09811101
Si      15.03077339      14.05003859      12.37804420      -0.43570334      -0.28541148       0.05115918
Si      13.82788106      12.23537742      13.37642241       0.23553755      -0.24219057       0.31470871
Si      14.35010270      14.27862101      14.66459461      -0.03432821       0.31934244      -0.05149215
Si      12.69712279      14.36076728      12.83396369      -0.04226745      -0.24987210      -0.21626473
5
Lattice="27.25 0.0 0.0 0.0 27.25 0.0 0.0 0.0 27.25" Properties=species:S:1:pos:R:3:forces:R:3 energy=-43.72139143486335 bias_energy=-43.72127062922039 name=N pbc="T T T"
Si      12.25800040      13.37212517      14.95967815       0.29162936       0.47319067      -0.09664798
Si      14.99082688      13.87985984      12.28957745      -0.43632588      -0.30975526       0.05654321
Si      13.88186581      12.22143665      13.61732763       0.21294097      -0.18197961       0.31786209
Si      14.33939803      14.47633020      14.51838246      -0.03055663       0.30014011      -0.10445042
Si      12.65490887      14.17524814      12.74003431      -0.03768783      -0.28159591      -0.17330690
5
Lattice="27.25 0.0 0.0 0.0 27.25 0.0 0.0 0.0 27.25" Properties=species:S:1:pos:R:3:forces:R:3 energy=-43.721425653735416 bias_energy=-43.72129402736623 name=N pbc="T T T"
Si      12.31276404      13.56109167      15.03485129       0.30743882       0.48715928      -0.10203924
Si      14.93677719      13.69060681      12.21464683      -0.44086996      -0.33021450       0.06580373
Si      13.92479537      12.24606970      13.83759484       0.19544200      -0.13085873       0.30705529
Si      14.34160080      14.62964640      14.33897317      -0.02530930       0.27079628      -0.14710610
Si      12.60906261      13.99758542      12.69893386      -0.03670156      -0.29688233      -0.12371368
5
Lattice="27.25 0.0 0.0 0.0 27.25 0.0 0.0 0.0 27.25" Properties=species:S:1:pos:R:3:forces:R:3 energy=-43.72145329925118 bias_energy=-43.72131958309229 name=N pbc="T T T"
Si      12.38416231      13.76302043      15.09302193       0.32447762       0.49728819      -0.11417107
Si      14.86621487      13.48768039      12.15676446      -0.44929770      -0.34607119       0.07908638
Si      13.96244532      12.29982782      14.03230901       0.18293170      -0.08966186       0.28730035
Si      14.35398689      14.73739879      14.13828165      -0.02093749       0.23506874      -0.17893250
Si      12.55819060      13.83707258      12.70462295      -0.03717413      -0.29662389      -0.07328317
5
Lattice="27.25 0.0 0.0 0.0 27.25 0.0 0.0 0.0 27.25" Properties=species:S:1:pos:R:3:forces:R:3 energy=-43.72150678952284 bias_energy=-43.72135981663311 name=N pbc="T T T"
Si      12.47331288      13.97007559      15.13021026       0.34207903       0.50235914      -0.13145876
Si      14.77813943      13.27851005      12.12038097      -0.46072045      -0.35679754       0.09565129
Si      13.99851792      12.37340962      14.19715587       0.17525895      -0.05810553       0.26245434
Si      14.37197405      14.80076666      13.92833936      -0.01898881       0.19648462      -0.19979653
Si      12.50305572      13.70223808      12.74891353      -0.03762871      -0.28394068      -0.02685034
