5
Lattice="27.25 0.0 0.0 0.0 27.25 0.0 0.0 0.0 27.25" Properties=species:S:1:pos:R:3:forces:R:3 energy=-43.72139295885644 bias_energy=0 name=N0 pbc="T T T"
Si      12.10540963      13.18575204      14.72333487       0.27568295      -0.13124415       0.26167574
Si      15.14465140      14.06333276      12.52539273       0.38334677       0.56359802       0.17482059
Si      13.35873732      12.49040145      12.80708515      -0.08978979      -0.17455398      -0.10283736
Si      14.47846303      13.50005603      14.75915573      -0.39716384      -0.21083215      -0.21353892
Si      13.03773863      14.88545772      13.31003153      -0.17207610      -0.04696774      -0.12012004
5
Lattice="27.25 0.0 0.0 0.0 27.25 0.0 0.0 0.0 27.25" Properties=species:S:1:pos:R:3:forces:R:3 energy=-43.72149580733605 bias_energy=-43.721217716661116 name=N pbc="T T T"
Si      12.16081434      12.82641970      14.59021310       0.22885216      -0.20220409       0.24531870
Si      15.08959829      14.42377612      12.65891545       0.27982215       0.62517687       0.27911098
Si      13.55586055      12.58005238      12.65769873       0.00082406      -0.05381271      -0.19146146
Si      14.46000781      13.48096874      14.77212163      -0.26397726      -0.24056438      -0.17511116
Si      12.85871901      14.81378306      13.44605109      -0.24552112      -0.12859569      -0.15785706
