5
Lattice="27.25 0.0 0.0 0.0 27.25 0.0 0.0 0.0 27.25" Properties=species:S:1:pos:R:3:forces:R:3 energy=-42.1799124025984 bias_energy=0 name=N0 pbc="T T T"
Si      13.70954507      13.87080063      12.30776764       0.26775640       0.19198653      -0.09695399
Si      14.67555086      15.02265393      14.18987398       0.19844101       0.16989147       0.23997986
Si      12.29058721      14.74291069      14.05951436       0.15423883       0.17132824       0.41697418
Si      13.75603620      11.59057297      12.81807678      -0.35546925      -0.34889812      -0.17965172
Si      13.69328067      12.89806179      14.74976724      -0.26496700      -0.18430813      -0.38034833
5
Lattice="27.25 0.0 0.0 0.0 27.25 0.0 0.0 0.0 27.25" Properties=species:S:1:pos:R:3:forces:R:3 energy=-42.20769350152589 bias_energy=-42.20765556899098 name=N pbc="T T T"
Si      13.84438638      14.09516436      12.28970151       0.26142123       0.16917415       0.02196674
Si      14.88301306      14.69992942      14.35879164       0.17913857       0.07909636       0.26351382
Si      12.47307552      14.76018426      14.14412220       0.19565920       0.21529969       0.37796021
Si      13.36267289      11.85298531      12.61412987      -0.40927848      -0.27892876      -0.24144771
Si      13.56185215      12.71673665      14.71825477      -0.22694052      -0.18464144      -0.42199305
