5
Lattice="27.25 0.0 0.0 0.0 27.25 0.0 0.0 0.0 27.25" Properties=species:S:1:pos:R:3:forces:R:3 energy=-43.72152509289841 bias_energy=0 name=N0 pbc="T T T"
Si      13.48092694      14.40083775      15.38217255       0.53683632       0.16900959      -0.36214531
Si      13.76953756      12.84724202      11.86883119      -0.53435423      -0.09120255       0.49325720
Si      12.37202845      12.97006391      13.81053031      -0.04372845      -0.05172768      -0.04018699
Si      14.83451441      12.97694253      14.01233131       0.01756056       0.02424640      -0.02797351
Si      13.66799265      14.92991379      13.05113464       0.02368580      -0.05032576      -0.06295139
5
Lattice="27.25 0.0 0.0 0.0 27.25 0.0 0.0 0.0 27.25" Properties=species:S:1:pos:R:3:forces:R:3 energy=-43.72146519861875 bias_energy=-43.72052702871375 name=N pbc="T T T"
Si      13.66436283      14.50854019      15.33752937       0.56846208       0.23945280      -0.27989672
Si      13.58361030      12.74161560      11.91252256      -0.57041724      -0.19908213       0.34640086
Si      12.37130471      13.03672242      13.96053419      -0.06334443       0.02413785       0.14808097
Si      14.83770845      12.94813868      13.94388603       0.04566992      -0.02323894      -0.07641236
Si      13.66801370      14.88998312      12.97052785       0.01962966      -0.04126958      -0.13817274
5
Lattice="27.25 0.0 0.0 0.0 27.25 0.0 0.0 0.0 27.25" Properties=species:S:1:pos:R:3:forces:R:3 energy=-43.721496152367706 bias_energy=-43.72093437807478 name=N pbc="T T T"
Si      13.85384285      14.60512466      15.26838052       0.55948855       0.22269154      -0.30240081
Si      13.39268539      12.64429401      11.98279408      -0.56790254      -0.18574986       0.37019261
Si      12.38409929      13.11461231      14.10505175      -0.03918490       0.03929300       0.14293478
Si      14.83471511      12.91489587      13.87824699       0.03337219      -0.02395537      -0.07761228
Si      13.65965736      14.84607316      12.89052667       0.01422671      -0.05227930      -0.13311431
5
Lattice="27.25 0.0 0.0 0.0 27.25 0.0 0.0 0.0 27.25" Properties=species:S:1:pos:R:3:forces:R:3 energy=-43.7212907728719 bias_energy=-43.7207532891911 name=N pbc="T T T"
Si      14.03811737      14.68752405      15.17611076       0.54922954       0.20531682      -0.32496635
Si      13.20523819      12.56033992      12.07480662      -0.56281032      -0.17020139       0.39515589
Si      12.41152450      13.19874954      14.23971062      -0.01619794       0.05277410       0.13513737
Si      14.82474885      12.87898733      13.81753022       0.02139404      -0.02500427      -0.07796823
Si      13.64537108      14.79939915      12.81684179       0.00838467      -0.06288525      -0.12735868
5
Lattice="27.25 0.0 0.0 0.0 27.25 0.0 0.0 0.0 27.25" Properties=species:S:1:pos:R:3:forces:R:3 energy=-43.72120915114739 bias_energy=-43.72082087738991 name=N pbc="T T T"
Si      14.22031476      14.75920246      15.06464581       0.53843230       0.18793792      -0.34615266
Si      13.02061773      12.48888176      12.18906564      -0.55583670      -0.15313846       0.41978010
Si      12.45774632      13.29667683      14.37274697       0.00556714       0.06385492       0.12460606
Si      14.80468208      12.83617719      13.75576924       0.00957492      -0.02576263      -0.07709319
Si      13.62163911      14.74406176      12.74277233       0.00226234      -0.07289175      -0.12114032
5
Lattice="27.25 0.0 0.0 0.0 27.25 0.0 0.0 0.0 27.25" Properties=species:S:1:pos:R:3:forces:R:3 energy=-43.721208658922905 bias_energy=-43.7211207492459 name=N pbc="T T T"
Si      14.41419665      14.81912607      14.91399095       0.52539436       0.16892629      -0.36704554
Si      12.82652204      12.42980100      12.34162571      -0.54755404      -0.13419775       0.44586804
Si      12.52443658      13.40923089      14.50274991       0.02790546       0.07301811       0.10963258
Si      14.77437351      12.78517505      13.69713731      -0.00208104      -0.02539006      -0.07489976
Si      13.58547122      14.68166699      12.66949612      -0.00366473      -0.08235658      -0.11355532
5
Lattice="27.25 0.0 0.0 0.0 27.25 0.0 0.0 0.0 27.25" Properties=species:S:1:pos:R:3:forces:R:3 energy=-43.721354189759964 bias_energy=-43.72124957793012 name=N pbc="T T T"
Si      14.59451549      14.85869160      14.74230617       0.51076515       0.14843013      -0.38835423
Si      12.64934232      12.39230241      12.51417122      -0.53602589      -0.11237007       0.47280687
Si      12.60833606      13.52859413      14.61815596       0.05008348       0.08063495       0.09136341
Si      14.73492109      12.72903044      13.64724309      -0.01456061      -0.02457864      -0.07130665
Si      13.53788504      14.61638143      12.60312356      -0.01026213      -0.09211638      -0.10450940
5
Lattice="27.25 0.0 0.0 0.0 27.25 0.0 0.0 0.0 27.25" Properties=species:S:1:pos:R:3:forces:R:3 energy=-43.720890431641855 bias_energy=-43.720750055872884 name=N pbc="T T T"
Si      14.75492717      14.87836767      14.55744397       0.49470243       0.12778962      -0.40754905
Si      12.48547759      12.37387839      12.70359025      -0.52302654      -0.08933519       0.49932270
Si      12.70734020      13.64866971      14.71222458       0.07031476       0.08491033       0.06927172
Si      14.68884948      12.67708318      13.60433767      -0.02628036      -0.02207644      -0.06677636
Si      13.48840555      14.54700104      12.54740353      -0.01571029      -0.10128833      -0.09426901
5
Lattice="27.25 0.0 0.0 0.0 27.25 0.0 0.0 0.0 27.25" Properties=species:S:1:pos:R:3:forces:R:3 energy=-43.72095568074139 bias_energy=-43.720827407277724 name=N pbc="T T T"
Si      14.90015617      14.87461926      14.34881733       0.47887156       0.10802549      -0.42476428
Si      12.34100177      12.37863688      12.91307431      -0.50771555      -0.06534792       0.52385415
Si      12.82290005      13.77573867      14.79167026       0.08782656       0.08633606       0.04512115
Si      14.63464473      12.61976613      13.57239003      -0.03745902      -0.01938314      -0.06078098
Si      13.42629729      14.47623905      12.49904807      -0.02152355      -0.10963049      -0.08343004
5
Lattice="27.25 0.0 0.0 0.0 27.25 0.0 0.0 0.0 27.25" Properties=species:S:1:pos:R:3:forces:R:3 energy=-43.72139407597056 bias_energy=-43.72130447985613 name=N pbc="T T T"
Si      15.03159508      14.84526683      14.11220020       0.46176275       0.08847963      -0.43956950
Si      12.21572603      12.40704038      13.14345620      -0.49103841      -0.04045061       0.54753874
Si      12.95726705      13.90923347      14.85120256       0.10321911       0.08446018       0.01741117
Si      14.57104410      12.55889039      13.55629094      -0.04804555      -0.01467198      -0.05416609
Si      13.34936774      14.40456894      12.46185010      -0.02589791      -0.11781722      -0.07121432
5
Lattice="27.25 0.0 0.0 0.0 27.25 0.0 0.0 0.0 27.25" Properties=species:S:1:pos:R:3:forces:R:3 energy=-43.72150295948182 bias_energy=-43.72134413516828 name=N pbc="T T T"
Si      15.13487494      14.79239525      13.86871864       0.44406979       0.06967199      -0.45164219
Si      12.11492175      12.45696000      13.38037599      -0.47296882      -0.01468140       0.56997035
Si      13.10211249      14.03983242      14.88511628       0.11485723       0.07835489      -0.01398620
Si      14.50290128      12.50448216      13.55186852      -0.05803727      -0.00698049      -0.04715758
Si      13.27018953      14.33133018      12.43892057      -0.02792093      -0.12636498      -0.05718438
5
Lattice="27.25 0.0 0.0 0.0 27.25 0.0 0.0 0.0 27.25" Properties=species:S:1:pos:R:3:forces:R:3 energy=-43.7214656310573 bias_energy=-43.72121011382958 name=N pbc="T T T"
Si      15.20900178      14.71700194      13.62226277       0.42747841       0.05279502      -0.46097420
Si      12.04113889      12.53239531      13.62662201      -0.45393671       0.01087516       0.58965197
Si      13.25610010      14.16573698      14.89159760       0.12131743       0.06868086      -0.04611329
Si      14.43254761      12.45244692      13.55916755      -0.06604702       0.00158603      -0.03933779
Si      13.18621162      14.25741885      12.42535008      -0.02881212      -0.13393707      -0.04322669
5
Lattice="27.25 0.0 0.0 0.0 27.25 0.0 0.0 0.0 27.25" Properties=species:S:1:pos:R:3:forces:R:3 energy=-43.721472323008896 bias_energy=-43.721368160274224 name=N pbc="T T T"
Si      15.25752270      14.60497499      13.34330250       0.41358662       0.03978835      -0.46569413
Si      11.99308109      12.64396254      13.90452251      -0.43520432       0.03526132       0.60595100
Si      13.43543244      14.30031366      14.86638209       0.12233561       0.05478031      -0.08004990
Si      14.35250992      12.40009238      13.58525759      -0.07304371       0.01237614      -0.03166721
Si      13.08645386      14.17565644      12.42553531      -0.02767419      -0.14220611      -0.02853976
5
Lattice="27.25 0.0 0.0 0.0 27.25 0.0 0.0 0.0 27.25" Properties=species:S:1:pos:R:3:forces:R:3 energy=-43.721450382426326 bias_energy=-43.72138612188374 name=N pbc="T T T"
Si      15.26592485      14.44760929      13.03760008       0.40335993       0.03141807      -0.46528771
Si      11.98446090      12.80251241      14.21193639      -0.41637797       0.05951001       0.61924435
Si      13.63833704      14.43941152      14.79397049       0.11360862       0.03314724      -0.11882627
Si      14.26532192      12.35251050      13.63676674      -0.07845110       0.02821015      -0.02354709
Si      12.97095530      14.08295628      12.44472630      -0.02213948      -0.15228548      -0.01158328
5
Lattice="27.25 0.0 0.0 0.0 27.25 0.0 0.0 0.0 27.25" Properties=species:S:1:pos:R:3:forces:R:3 energy=-43.72143269151552 bias_energy=-43.72114329499775 name=N pbc="T T T"
Si      15.21385162      14.23830814      12.72671021       0.40616240       0.03714133      -0.45384246
Si      12.03557241      13.01101038      14.52225626      -0.40466970       0.07654809       0.62425954
Si      13.84670772      14.57816051      14.66219101       0.08505471       0.00129594      -0.15842385
Si      14.18458855      12.31907697      13.72638078      -0.07792023       0.04973225      -0.01612819
Si      12.84427970      13.97844399      12.48746174      -0.00862718      -0.16471760       0.00413496
5
Lattice="27.25 0.0 0.0 0.0 27.25 0.0 0.0 0.0 27.25" Properties=species:S:1:pos:R:3:forces:R:3 energy=-43.72134973291316 bias_energy=-43.720087062779164 name=N pbc="T T T"
Si      15.03319968      13.85526731      12.32974148       0.44955958       0.08839284      -0.41060593
Si      12.21409389      13.39174596      14.91814951      -0.42597718       0.05506168       0.59757465
Si      14.07750040      14.78070895      14.32806948       0.00948879      -0.04758103      -0.18108027
Si      14.14602967      12.34096683      13.96059674      -0.06230839       0.08432943      -0.01741426
Si      12.65417638      13.75631094      12.58844279       0.02923720      -0.18020292       0.01152581
5
Lattice="27.25 0.0 0.0 0.0 27.25 0.0 0.0 0.0 27.25" Properties=species:S:1:pos:R:3:forces:R:3 energy=-43.721376425050515 bias_energy=-43.720527029157026 name=N pbc="T T T"
Si      15.14396885      14.10691643      12.54517456       0.56830866       0.27733332      -0.23356231
Si      12.10955318      13.13919912      14.70994924      -0.51698600      -0.13438116       0.39311459
Si      13.48280540      14.98420979      14.03476478      -0.18351365      -0.10635305      -0.05567435
Si      14.44503594      12.73207157      14.37505977      -0.00106469       0.11108707      -0.06409055
Si      12.94363662      13.16260310      12.46005166       0.13325568      -0.14768618      -0.03978738
5
Lattice="27.25 0.0 0.0 0.0 27.25 0.0 0.0 0.0 27.25" Properties=species:S:1:pos:R:3:forces:R:3 energy=-43.72113019889374 bias_energy=-43.7183511374667 name=N pbc="T T T"
Si      14.97357559      13.78863963      12.25664198       0.49965230       0.15420386      -0.35511476
Si      12.27740387      13.45160773      14.99444937      -0.45843696      -0.00953841       0.54323905
Si      13.25633713      14.98931366      13.42869669      -0.07979300      -0.13035106      -0.17129411
Si      14.63278951      13.29519633      14.57702673      -0.03890133       0.10243690      -0.08127126
Si      12.98489390      12.60024265      12.86818523       0.07747899      -0.11675129       0.06444108
5
Lattice="27.25 0.0 0.0 0.0 27.25 0.0 0.0 0.0 27.25" Properties=species:S:1:pos:R:3:forces:R:3 energy=-43.721494974649744 bias_energy=-43.7201137114963 name=N pbc="T T T"
Si      15.13095255      14.17133402      12.55347882       0.57576770       0.30309887      -0.20314758
Si      12.11798283      13.07986174      14.69466460      -0.51290396      -0.18164707       0.35792566
Si      12.99396644      14.87821778      13.37841985      -0.14539282      -0.18073628      -0.05494105
Si      14.48324726      13.47035432      14.75201012      -0.10192802       0.06887231      -0.04214667
Si      13.39885091      12.52523213      12.74642661       0.18445710      -0.00958784      -0.05769036
5
Lattice="27.25 0.0 0.0 0.0 27.25 0.0 0.0 0.0 27.25" Properties=species:S:1:pos:R:3:forces:R:3 energy=-43.72149871407703 bias_energy=-43.72096184473274 name=N pbc="T T T"
Si      15.01094908      13.85116046      12.30504597       0.49076427       0.10927175      -0.36936709
Si      12.23843372      13.40120508      14.94340610      -0.43952766       0.02870517       0.57062808
Si      12.79101981      14.52942397      12.90482780      -0.03750879      -0.19388316      -0.14305179
Si      14.50496325      14.11440056      14.63316824      -0.02189656       0.07283663      -0.13832811
Si      13.57963413      12.22880993      13.33855189       0.00816874      -0.01693039       0.08011892
5
Lattice="27.25 0.0 0.0 0.0 27.25 0.0 0.0 0.0 27.25" Properties=species:S:1:pos:R:3:forces:R:3 energy=-43.720466833484096 bias_energy=-43.71271397658534 name=N pbc="T T T"
Si      15.12054749      14.28747814      12.59476287       0.57206211       0.29954255      -0.22819876
Si      12.13316226      12.96356450      14.66106375      -0.49499905      -0.15825026       0.40954573
Si      12.72256336      14.31502133      12.76486530      -0.03703690      -0.21841940      -0.03667687
Si      14.13920180      14.27097114      14.78420521      -0.13530345       0.00974366      -0.06136495
Si      14.00952508      12.28796488      13.32010288       0.09527729       0.06738345      -0.08330515
