5
Lattice="27.25 0.0 0.0 0.0 27.25 0.0 0.0 0.0 27.25" Properties=species:S:1:pos:R:3:forces:R:3 energy=-43.721541988640304 bias_energy=0 name=N0 pbc="T T T"
Si      12.09345019      12.49811438      13.92779622       0.40633087       0.41733474      -0.15683823
Si      15.15652283      14.75180686      13.32256629      -0.21376752       0.25122678       0.52867358
Si      14.38516021      12.83660276      14.53611300      -0.14469046      -0.32013622      -0.16599034
Si      12.88968425      14.75083502      14.09820144      -0.00084384      -0.09466627      -0.09612817
Si      13.60018251      13.28764098      12.24032305      -0.04702905      -0.25375902      -0.10971683
5
Lattice="27.25 0.0 0.0 0.0 27.25 0.0 0.0 0.0 27.25" Properties=species:S:1:pos:R:3:forces:R:3 energy=-43.72133032073331 bias_energy=-43.7205441278919 name=N pbc="T T T"
Si      12.10033101      12.44846053      13.60059459       0.20657020       0.31227596      -0.20202222
Si      15.15236816      14.79642561      13.65519423      -0.21812492       0.27955462       0.65299916
Si      14.28846613      12.74210879      14.52668970      -0.07462628      -0.37380966      -0.21254371
Si      12.80510566      14.68078484      14.12494829      -0.04585596      -0.06266965      -0.10577168
Si      13.77872904      13.45722023      12.21757319       0.13203695      -0.15535126      -0.13266155
5
Lattice="27.25 0.0 0.0 0.0 27.25 0.0 0.0 0.0 27.25" Properties=species:S:1:pos:R:3:forces:R:3 energy=-43.721504852898775 bias_energy=-43.721221501476656 name=N pbc="T T T"
Si      12.14475926      12.44018166      13.28091651       0.21653153       0.30871874      -0.25527488
Si      15.10622167      14.80793940      13.96746151      -0.25802277       0.23801063       0.65842204
Si      14.18813898      12.66337596      14.51272906      -0.07774174      -0.34315455      -0.20268268
Si      12.72260843      14.60868340      14.12279611      -0.04176336      -0.06633058      -0.10379324
Si      13.96327166      13.60481958      12.24109680       0.16099634      -0.13724423      -0.09667124
5
Lattice="27.25 0.0 0.0 0.0 27.25 0.0 0.0 0.0 27.25" Properties=species:S:1:pos:R:3:forces:R:3 energy=-43.72147978721472 bias_energy=-43.72132757955927 name=N pbc="T T T"
Si      12.22584165      12.46223210      12.98939172       0.23964880       0.31691027      -0.30072797
Si      15.02602913      14.78465142      14.25996230      -0.29503920       0.19845428       0.64367893
Si      14.09076164      12.59152859      14.48818450      -0.08810443      -0.31632069      -0.19015689
Si      12.64577530      14.55083759      14.08782223      -0.03466884      -0.07267756      -0.09980329
Si      14.13659228      13.73575030      12.29963925       0.17816367      -0.12636629      -0.05299078
5
Lattice="27.25 0.0 0.0 0.0 27.25 0.0 0.0 0.0 27.25" Properties=species:S:1:pos:R:3:forces:R:3 energy=-43.721463310180525 bias_energy=-43.7213607851859 name=N pbc="T T T"
Si      12.33726329      12.51214157      12.72113956       0.27203176       0.33262538      -0.33146259
Si      14.91465365      14.73633969      14.52621495      -0.32613307       0.16389466       0.61542221
Si      13.99368685      12.52571433      14.45385199      -0.09946070      -0.29473070      -0.17833860
Si      12.57906013      14.50255971      14.03341004      -0.02839956      -0.07732346      -0.09750112
Si      14.30033609      13.84824469      12.39038347       0.18196157      -0.12446587      -0.00811989
5
Lattice="27.25 0.0 0.0 0.0 27.25 0.0 0.0 0.0 27.25" Properties=species:S:1:pos:R:3:forces:R:3 energy=-43.72145186582635 bias_energy=-43.72137416464291 name=N pbc="T T T"
Si      12.47693632      12.58448796      12.47950402       0.30924977       0.35403204      -0.34800276
Si      14.77502790      14.66386934      14.76835006      -0.34940697       0.13665166       0.57725394
Si      13.89677345      12.46470413      14.40709530      -0.11328541      -0.27755403      -0.16943934
Si      12.52492929      14.46679428      13.96099903      -0.02228403      -0.08224625      -0.09432398
Si      14.45133304      13.94514429      12.50905158       0.17572664      -0.13088342       0.03451214
5
Lattice="27.25 0.0 0.0 0.0 27.25 0.0 0.0 0.0 27.25" Properties=species:S:1:pos:R:3:forces:R:3 energy=-43.72143492251453 bias_energy=-43.721372017987484 name=N pbc="T T T"
Si      12.64322190      12.67770213      12.26473285       0.34940715       0.37855018      -0.35082738
Si      14.60902955      14.57086481      14.98304065      -0.36499994       0.11650553       0.53313431
Si      13.79925750      12.40829734      14.34721820      -0.12838018      -0.26205233      -0.16459518
Si      12.48493205      14.44329993      13.87598309      -0.01577697      -0.08816506      -0.09126452
Si      14.58855901      14.02483578      12.65402521       0.15974994      -0.14483832       0.07355277
5
Lattice="27.25 0.0 0.0 0.0 27.25 0.0 0.0 0.0 27.25" Properties=species:S:1:pos:R:3:forces:R:3 energy=-43.721418316451334 bias_energy=-43.72136368438648 name=N pbc="T T T"
Si      12.83450706      12.78946724      12.07996963       0.38907884       0.40398695      -0.34089554
Si      14.41756109      14.45869937      15.16838542      -0.37168286       0.10487895       0.48660479
Si      13.70174436      12.35693033      14.27192046      -0.14353239      -0.24900108      -0.16356613
Si      12.46120714      14.43375157      13.78098155      -0.01068547      -0.09445571      -0.08760549
Si      14.70998035      14.08615149      12.82374294       0.13682188      -0.16540911       0.10546239
5
Lattice="27.25 0.0 0.0 0.0 27.25 0.0 0.0 0.0 27.25" Properties=species:S:1:pos:R:3:forces:R:3 energy=-43.72138730542427 bias_energy=-43.72133398993151 name=N pbc="T T T"
Si      13.04932397      12.91797441      11.92876723       0.42637757       0.42940077      -0.31876400
Si      14.20231805      14.32970104      15.32002771      -0.37010209       0.10194710       0.43981612
Si      13.60464522      12.31184884      14.17950341      -0.15751584      -0.23650013      -0.16671830
Si      12.45576655      14.43922626      13.68018373      -0.00630292      -0.10216885      -0.08358475
Si      14.81294622      14.12624945      13.01651792       0.10754328      -0.19267889       0.12925092
5
Lattice="27.25 0.0 0.0 0.0 27.25 0.0 0.0 0.0 27.25" Properties=species:S:1:pos:R:3:forces:R:3 energy=-43.721506081488535 bias_energy=-43.72144520192793 name=N pbc="T T T"
Si      13.28589536      13.05979330      11.81554298       0.45913498       0.45308983      -0.28569627
Si      13.96493230      14.18700312      15.43440147      -0.35991602       0.10794226       0.39581425
Si      13.50937725      12.27519996      14.06765805      -0.16928282      -0.22401495      -0.17343996
Si      12.47187747      14.46187484      13.57959496      -0.00350839      -0.11143811      -0.07962054
Si      14.89291762      14.14112878      13.22780254       0.07357225      -0.22557903       0.14294252
5
Lattice="27.25 0.0 0.0 0.0 27.25 0.0 0.0 0.0 27.25" Properties=species:S:1:pos:R:3:forces:R:3 energy=-43.72150450786209 bias_energy=-43.721434807455516 name=N pbc="T T T"
Si      13.54414763      13.21547926      11.74518640       0.48450532       0.47335818      -0.24340612
Si      13.70586578      14.03120941      15.50471079      -0.34141612       0.12324171       0.35821685
Si      13.41549740      12.24932880      13.93302289      -0.17774693      -0.21116795      -0.18280636
Si      12.51048904      14.50211679      13.48160310      -0.00246237      -0.12232427      -0.07640761
Si      14.94900016      14.12686573      13.46047682       0.03712010      -0.26310766       0.14440326
5
Lattice="27.25 0.0 0.0 0.0 27.25 0.0 0.0 0.0 27.25" Properties=species:S:1:pos:R:3:forces:R:3 energy=-43.72147894721846 bias_energy=-43.7213815743388 name=N pbc="T T T"
Si      13.82275182      13.38098844      11.72528843       0.50115779       0.48943135      -0.19280753
Si      13.42627923      13.86547017      15.52406010      -0.31467720       0.14758862       0.32879525
Si      13.32438152      12.23965937      13.77104227      -0.18094771      -0.19655797      -0.19327029
Si      12.57685949      14.56316750      13.39467932      -0.00354686      -0.13546933      -0.07492626
Si      14.97472795      14.07571452      13.70992988      -0.00198602      -0.30499267       0.13220884
5
Lattice="27.25 0.0 0.0 0.0 27.25 0.0 0.0 0.0 27.25" Properties=species:S:1:pos:R:3:forces:R:3 energy=-43.721543241340875 bias_energy=-43.721354508275375 name=N pbc="T T T"
Si      14.11900498      13.55062131      11.76465656       0.50465071       0.49949543      -0.13794565
Si      13.13010674      13.69749727      15.48437333      -0.27897904       0.18280269       0.31266827
Si      13.23718445      12.25430099      13.57646115      -0.17722710      -0.18145177      -0.20065327
Si      12.67529481      14.64671879      13.33197834      -0.00830971      -0.15084475      -0.07627636
Si      14.96340902      13.97586164      13.96753062      -0.04013486      -0.35000160       0.10220701
