5
Lattice="27.25 0.0 0.0 0.0 27.25 0.0 0.0 0.0 27.25" Properties=species:S:1:pos:R:3:forces:R:3 energy=-43.72152036564147 bias_energy=0 name=N0 pbc="T T T"
Si      12.74867579      15.26422535      13.12056412       0.63662169       0.16215144       0.00647842
Si      13.53769851      13.16449870      12.27901451      -0.20463243       0.12823013       0.04393163
Si      14.76358944      14.36718472      14.05501657      -0.21543722       0.09006920       0.04149624
Si      14.50382273      11.98543065      14.12756746       0.05207582      -0.48860776      -0.29329005
Si      12.57121354      13.34366058      14.54283735      -0.26862787       0.10815699       0.20138377
5
Lattice="27.25 0.0 0.0 0.0 27.25 0.0 0.0 0.0 27.25" Properties=species:S:1:pos:R:3:forces:R:3 energy=-43.721486659027164 bias_energy=-43.72138897115898 name=N pbc="T T T"
Si      12.99511442      15.40713109      13.25587217       0.65134768       0.27192531       0.02636311
Si      13.46238897      13.28168792      12.25104074      -0.27028059       0.10616260       0.05329427
Si      14.86515916      14.15726863      14.08233994      -0.10755852      -0.09786647       0.15306102
Si      14.25529528      11.84462684      13.99814946      -0.09696044      -0.39900307      -0.36974533
Si      12.54704216      13.43428551      14.53759770      -0.17654813       0.11878162       0.13702693
5
Lattice="27.25 0.0 0.0 0.0 27.25 0.0 0.0 0.0 27.25" Properties=species:S:1:pos:R:3:forces:R:3 energy=-43.72148009243902 bias_energy=-43.72130000350795 name=N pbc="T T T"
Si      13.25556177      15.50126253      13.39611059       0.68173295       0.23490057       0.04123429
Si      13.40297447      13.41193809      12.23349500      -0.28120036       0.12213823       0.06548752
Si      14.93417456      13.93690161      14.09567278      -0.14036535      -0.10704074       0.13465780
Si      13.99054762      11.74931204      13.85446717      -0.08594633      -0.36065996      -0.36726165
Si      12.54174157      13.52558573      14.54525446      -0.17422091       0.11066190       0.12588203
5
Lattice="27.25 0.0 0.0 0.0 27.25 0.0 0.0 0.0 27.25" Properties=species:S:1:pos:R:3:forces:R:3 energy=-43.72145109850505 bias_energy=-43.721202525264054 name=N pbc="T T T"
Si      13.53948036      15.54747861      13.54981784       0.70593859       0.19141096       0.04964964
Si      13.35729467      13.55892290      12.22693211      -0.29062284       0.13805581       0.08000133
Si      14.97186805      13.69932120      14.08737882      -0.17427631      -0.10434584       0.11685988
Si      13.70596728      11.70372484      13.70063365      -0.06509897      -0.32971197      -0.36040906
Si      12.55038963      13.61555245      14.56023758      -0.17594048       0.10459104       0.11389821
5
Lattice="27.25 0.0 0.0 0.0 27.25 0.0 0.0 0.0 27.25" Properties=species:S:1:pos:R:3:forces:R:3 energy=-43.721339384796934 bias_energy=-43.72099155427771 name=N pbc="T T T"
Si      13.84748179      15.53576757      13.71481696       0.72152994       0.14125522       0.05112731
Si      13.33023281      13.72682938      12.23513325      -0.29849188       0.15544759       0.09758971
Si      14.97286952      13.44257132      14.05470702      -0.20870224      -0.09076647       0.09998107
Si      13.39566411      11.71657655      13.53183627      -0.03452219      -0.30824729      -0.35053148
Si      12.57875176      13.70325518      14.58850650      -0.17981363       0.10231096       0.10183339
5
Lattice="27.25 0.0 0.0 0.0 27.25 0.0 0.0 0.0 27.25" Properties=species:S:1:pos:R:3:forces:R:3 energy=-43.72134770069495 bias_energy=-43.72083520811978 name=N pbc="T T T"
Si      14.19102299      15.44686167      13.89741611       0.72528838       0.08755325       0.04255722
Si      13.32593001      13.92371350      12.26484261      -0.30561809       0.17227722       0.11857841
Si      14.92546340      13.16299329      13.98360500      -0.24037868      -0.06244846       0.08644139
Si      13.05332380      11.80713843      13.34733277       0.00833603      -0.30111949      -0.33689450
Si      12.62925979      13.78429311      14.63180352      -0.18762764       0.10373748       0.08931749
5
Lattice="27.25 0.0 0.0 0.0 27.25 0.0 0.0 0.0 27.25" Properties=species:S:1:pos:R:3:forces:R:3 energy=-43.72138356428026 bias_energy=-43.720940846687235 name=N pbc="T T T"
Si      14.63107846      15.19016604      14.12609829       0.71003852       0.03519571       0.01956436
Si      13.36254488      14.20197377      12.34727454      -0.31116909       0.18744917       0.14394282
Si      14.78526688      12.82180971      13.82151508      -0.26430116      -0.01611943       0.07906351
Si      12.62202217      12.05754702      13.12278241       0.06416799      -0.31746049      -0.32009838
Si      12.72408761      13.85350346      14.70732968      -0.19873626       0.11093504       0.07752769
5
Lattice="27.25 0.0 0.0 0.0 27.25 0.0 0.0 0.0 27.25" Properties=species:S:1:pos:R:3:forces:R:3 energy=-43.709697382241494 bias_energy=-43.68973288741952 name=N pbc="T T T"
Si      15.18349623      14.51644239      14.35113041       0.65222631       0.00151296      -0.03259404
Si      13.44914515      14.68455497      12.68711449      -0.31373473       0.19480733       0.17546699
Si      14.42801777      12.49587700      13.33680150      -0.26319673       0.06186043       0.08781780
Si      12.11134971      12.69975154      12.86429547       0.13820608      -0.38748395      -0.29892250
Si      12.95299114      13.72837409      14.88565813      -0.21350093       0.12930322       0.06823175
5
Lattice="27.25 0.0 0.0 0.0 27.25 0.0 0.0 0.0 27.25" Properties=species:S:1:pos:R:3:forces:R:3 energy=-43.68816840193056 bias_energy=-43.6585790372775 name=N pbc="T T T"
Si      14.89138173      14.96407677      14.22984882       0.50644619       0.09032428      -0.11026781
Si      13.15759237      14.51346941      12.60971504      -0.30003670       0.13751643       0.18194294
Si      14.70328149      12.74083373      13.43843111      -0.15810566       0.14548003       0.13733226
Si      12.44412370      12.23594122      12.96802930       0.17630156      -0.55598447      -0.29196054
Si      12.92862072      13.67067887      14.87897573      -0.22460539       0.18266374       0.08295315
5
Lattice="27.25 0.0 0.0 0.0 27.25 0.0 0.0 0.0 27.25" Properties=species:S:1:pos:R:3:forces:R:3 energy=-43.60938177666572 bias_energy=-43.46372004226396 name=N pbc="T T T"
Si      14.93540439      14.94541632      14.21402311       0.60397869       0.01316266      -0.07268334
Si      13.12427204      14.53268850      12.63717809      -0.27704896       0.14562928       0.19373533
Si      14.68927058      12.74589415      13.44925512      -0.23643021       0.10782553       0.09501769
Si      12.47117632      12.20880023      12.94677295       0.17000076      -0.44680393      -0.28900122
Si      12.90487667      13.69220080      14.87777073      -0.26050027       0.18018646       0.07293153
5
Lattice="27.25 0.0 0.0 0.0 27.25 0.0 0.0 0.0 27.25" Properties=species:S:1:pos:R:3:forces:R:3 energy=-43.45164040793105 bias_energy=-43.29008904987655 name=N pbc="T T T"
Si      14.98923973      14.92544905      14.18736333       0.60468216       0.01858244      -0.07668112
Si      13.08187893      14.55942020      12.67231670      -0.27134133       0.14170817       0.18765832
Si      14.66957622      12.74540026      13.47065147      -0.24126741       0.11465714       0.09998594
Si      12.50188308      12.18397284      12.91258794       0.16873084      -0.44562221      -0.29443553
Si      12.88242204      13.71075765      14.88208055      -0.26080426       0.17067446       0.08347239
5
Lattice="27.25 0.0 0.0 0.0 27.25 0.0 0.0 0.0 27.25" Properties=species:S:1:pos:R:3:forces:R:3 energy=-43.383377737074724 bias_energy=-43.0903144067434 name=N pbc="T T T"
Si      15.00692974      14.91952843      14.17355766       0.60556377       0.02842648      -0.08155836
Si      13.06835689      14.56892151      12.68553819      -0.26067441       0.13284596       0.17986250
Si      14.66260931      12.74250630      13.48516940      -0.24472091       0.12191383       0.10876588
Si      12.51163434      12.17969900      12.89544759       0.16482742      -0.44393373      -0.30297780
Si      12.87546971      13.71434475      14.88528716      -0.26499587       0.16074747       0.09590778
5
Lattice="27.25 0.0 0.0 0.0 27.25 0.0 0.0 0.0 27.25" Properties=species:S:1:pos:R:3:forces:R:3 energy=-43.16218125979935 bias_energy=-43.01037474350895 name=N pbc="T T T"
Si      15.04654199      14.83664656      14.26735045       0.60592055       0.03244354      -0.08425699
Si      14.07488471      13.92122684      12.33974355      -0.25508106       0.12834083       0.17749998
Si      13.93862218      12.75389417      14.70516923      -0.24617583       0.12445792       0.11249702
Si      12.61865348      12.14151713      12.81409060       0.16309693      -0.44278265      -0.30606984
Si      12.44629764      14.47171530      13.99864618      -0.26776059       0.15754036       0.10032983
5
Lattice="27.25 0.0 0.0 0.0 27.25 0.0 0.0 0.0 27.25" Properties=species:S:1:pos:R:3:forces:R:3 energy=-43.08487814196147 bias_energy=-42.949269761076316 name=N pbc="T T T"
Si      15.07587761      14.88429079      14.08510136       0.59928180       0.00349276      -0.08121437
Si      13.44468956      14.34243851      12.39947468      -0.31043345       0.21554426       0.09168948
Si      14.42667893      12.63916931      14.19760746      -0.25877764       0.15372403       0.05782509
Si      12.59363550      12.14191986      12.85467518       0.19156744      -0.43539238      -0.26591963
Si      12.58411840      14.11718153      14.58814131      -0.22163816       0.06263131       0.19761943
5
Lattice="27.25 0.0 0.0 0.0 27.25 0.0 0.0 0.0 27.25" Properties=species:S:1:pos:R:3:forces:R:3 energy=-43.06135070100102 bias_energy=-42.74913611685668 name=N pbc="T T T"
Si      15.07698682      14.87606475      14.08012464       0.59621043       0.02276875      -0.10110006
Si      13.43409912      14.35665606      12.40030761      -0.26986817       0.15937098       0.17263804
Si      14.42645181      12.63287864      14.21274124      -0.27360455       0.15054380       0.10801091
Si      12.60484111      12.14748264      12.84161177       0.18259092      -0.42193809      -0.31970526
Si      12.58262114      14.11191791      14.59021474      -0.23532864       0.08925456       0.14015637
5
Lattice="27.25 0.0 0.0 0.0 27.25 0.0 0.0 0.0 27.25" Properties=species:S:1:pos:R:3:forces:R:3 energy=-42.73867123323072 bias_energy=-42.615812119167096 name=N pbc="T T T"
Si      15.10084557      14.78874949      14.02326152       0.59783112       0.02552823      -0.10103282
Si      13.32642779      14.51347410      12.42486048      -0.26657682       0.15366301       0.17535207
Si      14.37978779      12.57417308      14.37505767      -0.27500828       0.15329545       0.10499887
Si      12.75704436      12.19095903      12.70609695       0.17999804      -0.42217620      -0.31943716
Si      12.56089448      14.05764430      14.59572338      -0.23624406       0.08968951       0.14011903
5
Lattice="27.25 0.0 0.0 0.0 27.25 0.0 0.0 0.0 27.25" Properties=species:S:1:pos:R:3:forces:R:3 energy=-43.71884733350565 bias_energy=-43.56578932077698 name=N pbc="T T T"
Si      14.89031723      14.26631039      13.77434409       0.61145326       0.07057541      -0.08733672
Si      13.05008106      15.02044951      12.41899114      -0.20695948       0.07331871       0.20356132
Si      14.18154429      12.23971865      14.84875240      -0.29029174       0.19207715       0.04622235
Si      13.46180670      12.65269432      12.59225258       0.13756027      -0.43305790      -0.31371569
Si      12.54125071      13.94582713      14.49065978      -0.25176231       0.09708663       0.15126874
5
Lattice="27.25 0.0 0.0 0.0 27.25 0.0 0.0 0.0 27.25" Properties=species:S:1:pos:R:3:forces:R:3 energy=-43.71787369438113 bias_energy=-43.53868392629866 name=N pbc="T T T"
Si      14.99225318      14.03846390      13.62072709       0.55853029      -0.06713897      -0.22899757
Si      13.25330821      14.79632416      12.13454324      -0.21882483      -0.00890996       0.15054125
Si      13.96891757      12.46936111      15.13155853      -0.44413486       0.23710330       0.18528435
Si      13.25012120      12.49452716      12.83912417       0.19932380      -0.38053524      -0.16576619
Si      12.66039984      14.32632368      14.39904697      -0.09489440       0.21948087       0.05893815
5
Lattice="27.25 0.0 0.0 0.0 27.25 0.0 0.0 0.0 27.25" Properties=species:S:1:pos:R:3:forces:R:3 energy=-43.713642714464015 bias_energy=-43.51498884249307 name=N pbc="T T T"
Si      14.84322862      14.33167108      13.87078407       0.41697892       0.13745157       0.01730860
Si      13.33756014      14.65792967      12.02243490      -0.30154752       0.08926095       0.21978461
Si      13.86601882      12.61238449      15.24834380      -0.35053985       0.18646848       0.03735730
Si      13.69319889      12.42024018      12.85457556       0.46450354      -0.35694655      -0.31620538
Si      12.38499352      14.10277457      14.12886167      -0.22939508      -0.05623445       0.04175487
5
Lattice="27.25 0.0 0.0 0.0 27.25 0.0 0.0 0.0 27.25" Properties=species:S:1:pos:R:3:forces:R:3 energy=-43.691744222194615 bias_energy=-43.44809675523203 name=N pbc="T T T"
Si      14.94941834      14.17871663      13.74600666       0.62779962      -0.17699001      -0.22179948
Si      13.20335683      14.84267388      12.19903125      -0.32547306       0.14588125       0.23758478
Si      13.95404227      12.43542458      15.09386985      -0.32169953       0.17165378      -0.00425337
Si      13.48755472      12.50596773      12.73274706       0.05032294      -0.29912096      -0.21852925
Si      12.53062785      14.16221718      14.35334519      -0.03094997       0.15857593       0.20699731
5
Lattice="27.25 0.0 0.0 0.0 27.25 0.0 0.0 0.0 27.25" Properties=species:S:1:pos:R:3:forces:R:3 energy=-43.47459859826429 bias_energy=-43.31395060141993 name=N pbc="T T T"
Si      15.02150388      14.14550255      13.69842577       0.53615199      -0.04626865      -0.15900315
Si      13.15910730      14.84171283      12.25595482      -0.31358693       0.06385446       0.24104387
Si      13.87576303      12.48948420      15.10715731      -0.39965405       0.22616754       0.05064795
Si      13.55859808      12.46507998      12.69777391       0.30204928      -0.34778666      -0.24485364
Si      12.51002771      14.18322043      14.36568819      -0.12496029       0.10403331       0.11216497
