5
Lattice="27.25 0.0 0.0 0.0 27.25 0.0 0.0 0.0 27.25" Properties=species:S:1:pos:R:3:forces:R:3 energy=-43.721508299209034 bias_energy=0 name=N0 pbc="T T T"
Si      14.01798161      14.99560854      13.60962215       0.12628123       0.20004066       0.25861824
Si      12.28270029      13.26553400      13.30655083       0.01109683       0.17712385      -0.57618688
Si      14.10718274      13.46553171      11.76673599      -0.12453433      -0.29625065       0.40891030
Si      13.14130794      13.78178829      15.48398081      -0.01531890       0.18670486      -0.30286168
Si      14.57582742      12.61653746      13.95811022       0.00247517      -0.26761872       0.21152001
5
Lattice="27.25 0.0 0.0 0.0 27.25 0.0 0.0 0.0 27.25" Properties=species:S:1:pos:R:3:forces:R:3 energy=-43.7214621450373 bias_energy=-43.72126574132328 name=N pbc="T T T"
Si      14.17413069      14.93967841      13.62136320       0.22962165       0.10241689       0.20093707
Si      12.29369405      13.40749504      13.16770703      -0.00678111       0.27335948      -0.53162291
Si      14.28556263      13.34461773      11.83529862       0.05574969      -0.33788092       0.34253166
Si      12.96558686      13.90688554      15.41337654      -0.16192694       0.21000981      -0.28783887
Si      14.40602577      12.52632328      14.08725461      -0.11666329      -0.24790526       0.27599306
5
Lattice="27.25 0.0 0.0 0.0 27.25 0.0 0.0 0.0 27.25" Properties=species:S:1:pos:R:3:forces:R:3 energy=-43.72143115900135 bias_energy=-43.72101296004627 name=N pbc="T T T"
Si      14.29952650      14.87886607      13.64648283       0.20374794       0.08537315       0.20994731
Si      12.33319251      13.52021344      13.03369250       0.03893244       0.26331275      -0.52920660
Si      14.43776966      13.21818438      11.92449944       0.04628371      -0.35237604       0.36612525
Si      12.81316676      14.03227292      15.32419924      -0.15385089       0.21356241      -0.30906688
Si      14.24134458      12.47546319      14.19612599      -0.13511319      -0.20987228       0.26220092
5
Lattice="27.25 0.0 0.0 0.0 27.25 0.0 0.0 0.0 27.25" Properties=species:S:1:pos:R:3:forces:R:3 energy=-43.72147804067464 bias_energy=-43.7209575585533 name=N pbc="T T T"
Si      14.40266807      14.81696691      13.68350478       0.18022825       0.07424985       0.21818043
Si      12.39648499      13.60990944      12.90317372       0.07787194       0.24949880      -0.52314259
Si      14.56928139      13.08946865      12.03379401       0.03033428      -0.36107235       0.38924770
Si      12.68110669      14.16040962      15.21538821      -0.14269427       0.21527304      -0.33062212
Si      14.07545886      12.44824538      14.28913928      -0.14574020      -0.17794934       0.24633658
5
Lattice="27.25 0.0 0.0 0.0 27.25 0.0 0.0 0.0 27.25" Properties=species:S:1:pos:R:3:forces:R:3 energy=-43.721508367476204 bias_energy=-43.720855154381994 name=N pbc="T T T"
Si      14.48554918      14.75556834      13.73164297       0.15757279       0.06801773       0.22480928
Si      12.48056124      13.67801565      12.77809047       0.11233552       0.23323976      -0.51375758
Si      14.68046424      12.96039596      12.15800689       0.01010280      -0.36534597       0.41278084
Si      12.56921086      14.28904260      15.09125937      -0.12853182       0.21451953      -0.35285332
Si      13.90921449      12.44197745      14.36600030      -0.15147929      -0.15043105       0.22902078
