5
Lattice="27.25 0.0 0.0 0.0 27.25 0.0 0.0 0.0 27.25" Properties=species:S:1:pos:R:3:forces:R:3 name=N0 pbc="T T T"
Si      12.44564608      12.82537488      13.65781742       0.15623086      -0.29879243       0.14039778
Si      13.56729085      14.96143633      13.13049749       0.16327434      -0.26080891       0.12863403
Si      14.00913631      12.98295380      11.84964114      -0.32523125       0.32559511      -0.22273840
Si      14.86442528      13.09071181      14.08684265       0.18291643      -0.28647162       0.14106418
Si      13.23850148      14.26452318      15.40020131      -0.39985195       0.44170079       0.05976899
5
Lattice="27.25 0.0 0.0 0.0 27.25 0.0 0.0 0.0 27.25" Properties=species:S:1:pos:R:3:forces:R:3 name=N pbc="T T T"
Si      12.44564608      12.82537488      13.65781742       0.03238740       0.04932723       0.23381266
Si      13.56729085      14.96143633      13.13049749       0.45933053      -0.48516370      -0.01355587
Si      14.00913631      12.98295380      11.84964114       0.10598691       0.02788813      -0.13396885
Si      14.86442528      13.09071181      14.08684265       0.25804811      -0.38500666       0.37358416
Si      13.23850148      14.26452318      15.40020131       0.01543058       0.17745179       0.28147372
5
Lattice="27.25 0.0 0.0 0.0 27.25 0.0 0.0 0.0 27.25" Properties=species:S:1:pos:R:3:forces:R:3 name=N pbc="T T T"
Si      12.55497920      12.90425645      13.81214479       0.12444754      -0.09099443       0.31823114
Si      14.11664089      14.74315525      13.28600929       0.09122575      -0.13167860       0.25315949
Si      14.22818946      12.65450368      12.11743728      -0.38593293       0.32755588      -0.28915104
Si      14.94220939      12.70375845      14.40567653       0.21074078      -0.15064509       0.08154118
Si      13.51197685      14.25102367      15.54956329      -0.42954063       0.42452541      -0.08296799
5
Lattice="27.25 0.0 0.0 0.0 27.25 0.0 0.0 0.0 27.25" Properties=species:S:1:pos:R:3:forces:R:3 name=N pbc="T T T"
Si      12.02771077      13.74603829      15.10548002       0.24032326      -0.34449992       0.22711170
Si      13.75520544      15.24945421      14.17961880       0.26584643      -0.17436954       0.21586561
Si      13.17248512      13.20555394      13.07176329      -0.07834215       0.41920347      -0.29703109
Si      14.40271129      13.06432760      15.12246619       0.16170829      -0.21267179       0.09736929
Si      13.61688960      14.83782474      16.53300881      -0.05340647       0.50976985      -0.10312177
5
Lattice="27.25 0.0 0.0 0.0 27.25 0.0 0.0 0.0 27.25" Properties=species:S:1:pos:R:3:forces:R:3 name=N pbc="T T T"
Si      13.05271057      13.85704804      15.43455816       0.31057655      -0.44301778       0.17834449
Si      14.45351319      15.70878493      14.58976200       0.09979249      -0.30454576      -0.10041137
Si      14.02075791      13.77457627      13.24243779       0.06066877       0.36926118      -0.29763996
Si      15.47985505      13.52954548      15.13116815       0.15292851      -0.30060547       0.09612878
Si      14.62960142      14.96037839      16.85694242       0.09883065       0.44322356      -0.06965192
5
Lattice="27.25 0.0 0.0 0.0 27.25 0.0 0.0 0.0 27.25" Properties=species:S:1:pos:R:3:forces:R:3 name=N pbc="T T T"
Si      13.66465617      13.51944448      15.48008578       0.31361154      -0.38275519       0.14667895
Si      14.63161027      15.53502687      14.39975376       0.10070588      -0.28095258      -0.03807401
Si      14.41071744      13.49374499      13.19443208      -0.04793364       0.41023165      -0.30192435
Si      16.05882992      13.59757685      14.95469045       0.13885719      -0.29829150       0.12077328
Si      15.10932645      15.01338615      16.66907011      -0.00889925       0.49710126      -0.10642257
5
Lattice="27.25 0.0 0.0 0.0 27.25 0.0 0.0 0.0 27.25" Properties=species:S:1:pos:R:3:forces:R:3 name=N pbc="T T T"
Si      16.26966744      14.20711764      16.02422676       0.21859390      -0.15915026       0.07306531
Si      14.24418310      15.25865988      15.07519254       0.16792970      -0.28573161       0.10813757
Si      15.45760776      13.61643384      13.83994686      -0.43818272       0.20802990      -0.15680490
Si      16.47060226      15.76766037      14.12794683       0.32928701      -0.30633500       0.15298979
Si      15.83884178      16.55310018      16.30266373      -0.43100571       0.35640128      -0.04098339
5
Lattice="27.25 0.0 0.0 0.0 27.25 0.0 0.0 0.0 27.25" Properties=species:S:1:pos:R:3:forces:R:3 name=N pbc="T T T"
Si      16.24458105      14.18685795      16.04908306       0.22194934      -0.15230676       0.08004028
Si      14.23126800      15.23256733      15.09259351       0.16727583      -0.28522062       0.12123407
Si      15.44237794      13.60393815      13.84372295      -0.44124099       0.19781462      -0.14460612
Si      16.47742951      15.73546301      14.15443580       0.33516075      -0.29834139       0.16580255
Si      15.80871146      16.55172668      16.30107115      -0.43810800       0.34738569      -0.03039044
5
Lattice="27.25 0.0 0.0 0.0 27.25 0.0 0.0 0.0 27.25" Properties=species:S:1:pos:R:3:forces:R:3 name=N pbc="T T T"
Si      15.50040500      12.83769530      16.94530473       0.29428242      -0.16254518       0.12828333
Si      14.10777799      14.15246786      15.38838634       0.20949220      -0.05988786       0.16988982
Si      15.44243432      12.39610560      14.55462122      -0.44978746       0.08955716      -0.08851080
Si      16.59949839      14.33139845      15.36129341       0.30659695      -0.34714344       0.23692731
Si      15.26617540      15.25726032      17.13620303      -0.48183951       0.26432101       0.05780222
5
Lattice="27.25 0.0 0.0 0.0 27.25 0.0 0.0 0.0 27.25" Properties=species:S:1:pos:R:3:forces:R:3 name=N pbc="T T T"
Si      15.76619127      12.22184123      18.09564708       0.26946586      -0.24522816       0.03049477
Si      14.84441429      14.19454795      16.91841896       0.14945269      -0.21971371       0.08023401
Si      15.57949560      12.31418328      15.67959529      -0.28960190       0.36258941      -0.26129073
Si      17.26519076      13.63346204      16.77514530       0.21751291      -0.36650967       0.13415198
Si      16.26711944      14.48937483      18.78827404      -0.26102116       0.47405075      -0.11474470
5
Lattice="27.25 0.0 0.0 0.0 27.25 0.0 0.0 0.0 27.25" Properties=species:S:1:pos:R:3:forces:R:3 name=N pbc="T T T"
Si      15.76779320      12.22857263      18.08890958       0.27418930      -0.23854927       0.04065678
Si      14.84858840      14.19634865      16.91420209       0.14810872      -0.21862100       0.08653533
Si      15.58826178      12.32251789      15.66754420      -0.28910004       0.36288569      -0.26121296
Si      17.27115371      13.63320750      16.76872482       0.22035059      -0.36170308       0.14489734
Si      16.27744030      14.49608929      18.77859440      -0.26051015       0.47330870      -0.11523595
5
Lattice="27.25 0.0 0.0 0.0 27.25 0.0 0.0 0.0 27.25" Properties=species:S:1:pos:R:3:forces:R:3 name=N pbc="T T T"
Si      16.04757444      12.40093204      17.58840740       0.28391681      -0.24767136       0.06916158
Si      15.33278445      14.48442817      16.43255577       0.15704316      -0.21455476       0.09203262
Si      15.83374801      12.65008069      15.12819097      -0.25092010       0.38258537      -0.27324257
Si      17.71374755      13.60327173      16.36401651       0.20851986      -0.34672349       0.15663943
Si      16.67072021      14.69061187      18.29685506      -0.21250478       0.49320186      -0.11604553
5
Lattice="27.25 0.0 0.0 0.0 27.25 0.0 0.0 0.0 27.25" Properties=species:S:1:pos:R:3:forces:R:3 name=N pbc="T T T"
Si      15.87702729      12.86324174      17.65454918       0.28779052      -0.24862138       0.06997200
Si      15.19924202      14.87340794      16.35029218       0.16275015      -0.20316066       0.08969434
Si      15.71530668      12.92593431      15.20473655      -0.31317370       0.34859969      -0.24727886
Si      17.56277548      13.99843194      16.37830558       0.20372507      -0.33871364       0.15996973
Si      16.50259995      15.17173729      18.24140668      -0.28381174       0.46953331      -0.10527523
5
Lattice="27.25 0.0 0.0 0.0 27.25 0.0 0.0 0.0 27.25" Properties=species:S:1:pos:R:3:forces:R:3 name=N pbc="T T T"
Si      15.83588668      15.18482815      17.31661670       0.20231512      -0.18682729       0.29028038
Si      17.96536256      16.09996780      16.13562208       0.30628661      -0.15985403       0.21482054
Si      16.84803809      14.12698499      15.49958483      -0.42526635       0.24786355      -0.16730104
Si      18.04025845      14.29298836      17.73648388       0.15427589      -0.17251088       0.13117431
Si      17.32105459      16.68551365      18.33648022      -0.42523923       0.38628511      -0.05743689
5
Lattice="27.25 0.0 0.0 0.0 27.25 0.0 0.0 0.0 27.25" Properties=species:S:1:pos:R:3:forces:R:3 name=N pbc="T T T"
Si      15.88289732      15.25370738      18.37936829       0.20761516      -0.25646821       0.24780298
Si      17.94294834      16.34061372      17.16004687       0.29939686      -0.18323012       0.18449112
Si      16.72934841      14.51753534      16.31528735      -0.27145896       0.38579307      -0.25246140
Si      18.09385025      14.31844340      18.47407513       0.15891200      -0.20503405       0.06097091
Si      17.46959718      16.61983970      19.44393235      -0.25397754       0.48278135      -0.13270297
5
Lattice="27.25 0.0 0.0 0.0 27.25 0.0 0.0 0.0 27.25" Properties=species:S:1:pos:R:3:forces:R:3 name=N pbc="T T T"
Si      16.83057955      16.07581221      19.07044910       0.21110166      -0.26646340       0.24129788
Si      18.86112777      17.13431565      17.74724086       0.30693783      -0.19332795       0.16434835
Si      17.60777211      15.28924374      17.00506941      -0.29472984       0.37330184      -0.23957609
Si      19.05319937      15.16096668      19.11814760       0.15973560      -0.20081238       0.06135450
Si      18.43504084      17.48908156      20.03248137      -0.27652241       0.46963846      -0.13177536
5
Lattice="27.25 0.0 0.0 0.0 27.25 0.0 0.0 0.0 27.25" Properties=species:S:1:pos:R:3:forces:R:3 name=N pbc="T T T"
Si      16.84163843      16.08495455      19.08807548       0.21221583      -0.26068172       0.24273623
Si      18.87526470      17.14658077      17.75961261       0.30345468      -0.20015435       0.16007353
Si      17.61309784      15.30775870      17.01608978      -0.37923754       0.32214807      -0.19206478
Si      19.06863711      15.17754096      19.12825518       0.14742998      -0.19755213       0.08405549
Si      18.44525280      17.49952139      20.04458554      -0.35086954       0.43753520      -0.05877875
5
Lattice="27.25 0.0 0.0 0.0 27.25 0.0 0.0 0.0 27.25" Properties=species:S:1:pos:R:3:forces:R:3 name=N pbc="T T T"
Si      16.78049035      15.90668397      19.52169078       0.26791747      -0.23911406       0.21568047
Si      19.23395718      17.27143224      17.82802057       0.26574089      -0.21610518       0.20007064
Si      17.49834774      15.74539764      17.25029565      -0.27682843       0.42335939      -0.22433352
Si      19.07402105      15.29705202      19.26731066       0.14902496      -0.17706105       0.09433335
Si      18.36979598      17.56803612      20.01311649      -0.26558106       0.44783282      -0.16565222
5
Lattice="27.25 0.0 0.0 0.0 27.25 0.0 0.0 0.0 27.25" Properties=species:S:1:pos:R:3:forces:R:3 name=N pbc="T T T"
Si      16.75555058      15.61091754      19.78996846       0.32536228      -0.17753688       0.23104718
Si      19.67269877      17.17970460      17.82312910       0.23291440      -0.21346395       0.27550812
Si      17.47480958      16.23734485      17.58907461      -0.38764836       0.34783884      -0.06402240
Si      19.07507114      15.35629470      19.24998810       0.10275804      -0.13136475       0.05156150
Si      18.07526048      17.59653678      19.55608713      -0.40346085       0.38011327      -0.14287514
5
Lattice="27.25 0.0 0.0 0.0 27.25 0.0 0.0 0.0 27.25" Properties=species:S:1:pos:R:3:forces:R:3 name=N pbc="T T T"
Si      16.76937435      15.61358856      19.84171829       0.33257414      -0.18858565       0.21750717
Si      19.65726016      17.19515612      17.85827303       0.23168655      -0.22861893       0.26873380
Si      17.44724661      16.26694909      17.62757245      -0.39471887       0.32531143      -0.05919712
Si      19.07153520      15.38170950      19.28055114       0.10897989      -0.14143963       0.05371069
Si      18.04333920      17.63015862      19.57964628      -0.41498982       0.37420676      -0.12731347
5
Lattice="27.25 0.0 0.0 0.0 27.25 0.0 0.0 0.0 27.25" Properties=species:S:1:pos:R:3:forces:R:3 name=N pbc="T T T"
Si      16.39407118      16.09659618      21.40617264       0.12480916      -0.39296736      -0.18008002
Si      18.18153841      18.10724342      18.64931392       0.05534397      -0.43678249      -0.07466980
Si      16.32814130      16.64947420      19.07232241      -0.52992870       0.23664484       0.09269446
Si      18.47833399      16.35562166      20.25658958       0.18148533      -0.11113314       0.04042200
Si      17.04755352      18.31013381      20.74873430      -0.20741932       0.27566828       0.29461561
