5
Lattice="27.25 0.0 0.0 0.0 27.25 0.0 0.0 0.0 27.25" Properties=species:S:1:pos:R:3:forces:R:3 energy=-43.72152269995699 bias_energy=0 name=N0 pbc="T T T"
Si      14.83862229      14.36928748      13.69351441      -0.30213998       0.18641161      -0.18426835
Si      13.04427326      14.70992161      12.14181789       0.06951594      -0.00565457       0.49194539
Si      14.20697088      12.54117388      15.10827179       0.21294304       0.31864022      -0.16510918
Si      13.54767140      12.46215173      12.80499982       0.25573083      -0.00393495      -0.21657033
Si      12.48746218      14.04246529      14.37639609      -0.23604983      -0.49546232       0.07400246
5
Lattice="27.25 0.0 0.0 0.0 27.25 0.0 0.0 0.0 27.25" Properties=species:S:1:pos:R:3:forces:R:3 energy=-43.72149639330143 bias_energy=-43.72111468864659 name=N pbc="T T T"
Si      14.71976829      14.53038024      13.74713817      -0.24858365       0.25150311      -0.10518675
Si      12.88857361      14.70264210      12.20763969      -0.07645633       0.06599001       0.39148106
Si      14.35730045      12.54533537      15.04143337       0.29317461       0.25908418      -0.13354040
Si      13.71630205      12.51607691      12.73414030       0.29316756      -0.00265898      -0.20721883
Si      12.44305560      13.83056538      14.39464847      -0.26130219      -0.57391831       0.05446491
5
Lattice="27.25 0.0 0.0 0.0 27.25 0.0 0.0 0.0 27.25" Properties=species:S:1:pos:R:3:forces:R:3 energy=-43.72150635261663 bias_energy=-43.720973971356564 name=N pbc="T T T"
Si      14.58573707      14.66335341      13.80279221      -0.27493598       0.23687233      -0.09830703
Si      12.73742641      14.67417841      12.27525967      -0.08338960       0.04079769       0.40022029
Si      14.50957061      12.57286838      14.97337484       0.28997022       0.28190850      -0.14235721
Si      13.86034327      12.59526235      12.66914604       0.27942329       0.02501532      -0.19871145
Si      12.43192264      13.61933745      14.40442725      -0.21106794      -0.58459384       0.03915540
5
Lattice="27.25 0.0 0.0 0.0 27.25 0.0 0.0 0.0 27.25" Properties=species:S:1:pos:R:3:forces:R:3 energy=-43.72149517864747 bias_energy=-43.72093695812586 name=N pbc="T T T"
Si      14.43844156      14.77145738      13.86101016      -0.29738179       0.21788373      -0.09342694
Si      12.58472557      14.62302845      12.34731617      -0.08793690       0.01635859       0.41066993
Si      14.66227248      12.62371980      14.90170003       0.28434487       0.30691313      -0.15174021
Si      13.98472883      12.69663181      12.60616787       0.26278927       0.04727414      -0.19049377
Si      12.45483157      13.41016257      14.40880576      -0.16181545      -0.58842959       0.02499098
5
Lattice="27.25 0.0 0.0 0.0 27.25 0.0 0.0 0.0 27.25" Properties=species:S:1:pos:R:3:forces:R:3 energy=-43.72148628258786 bias_energy=-43.720975170147845 name=N pbc="T T T"
Si      14.28006482      14.85548520      13.92164247      -0.31581789       0.19523313      -0.09182262
Si      12.43162855      14.54638701      12.42573656      -0.08921604      -0.00822106       0.42387904
Si      14.81572531      12.69985021      14.82338697       0.27627508       0.33442044      -0.16146421
Si      14.08559480      12.81789853      12.54530484       0.24266777       0.06380956      -0.18220288
Si      12.51198653      13.20537904      14.40892916      -0.11390892      -0.58524207       0.01161067
5
Lattice="27.25 0.0 0.0 0.0 27.25 0.0 0.0 0.0 27.25" Properties=species:S:1:pos:R:3:forces:R:3 energy=-43.72147615587362 bias_energy=-43.721062576945734 name=N pbc="T T T"
Si      14.11356614      14.91482304      13.98370365      -0.32894350       0.17086361      -0.09324818
Si      12.27923988      14.44085290      12.51343449      -0.08808549      -0.03342453       0.43974572
Si      14.96820553      12.80516037      14.73559610       0.26515094       0.36391005      -0.17192267
Si      14.15854504      12.95551329      12.48634553       0.22032673       0.07333566      -0.17461753
Si      12.60544342      13.00865040      14.40592023      -0.06844867      -0.57468478       0.00004267
5
Lattice="27.25 0.0 0.0 0.0 27.25 0.0 0.0 0.0 27.25" Properties=species:S:1:pos:R:3:forces:R:3 energy=-43.721451153316934 bias_energy=-43.72112781231675 name=N pbc="T T T"
Si      13.94375001      14.94889983      14.04493115      -0.33572035       0.14515754      -0.09930129
Si      12.13094682      14.30257100      12.61387230      -0.08322201      -0.05919222       0.45997782
Si      15.11623094      12.94387565      14.63536721       0.24909128       0.39584034      -0.18337775
Si      14.19689404      13.10292753      12.42956266       0.19592195       0.07441801      -0.16701515
Si      12.73717818      12.82672599      14.40126668      -0.02607086      -0.55622368      -0.01028364
5
Lattice="27.25 0.0 0.0 0.0 27.25 0.0 0.0 0.0 27.25" Properties=species:S:1:pos:R:3:forces:R:3 energy=-43.721512392667215 bias_energy=-43.72124427960684 name=N pbc="T T T"
Si      13.77739818      14.96016305      14.10157496      -0.33448853       0.12085713      -0.11134578
Si      11.99462586      14.12806352      12.73113997      -0.07409737      -0.08502397       0.48548722
Si      15.25348808      13.11817465      14.51851979       0.22649443       0.42852147      -0.19553317
Si      14.19472876      13.24833323      12.37435032       0.17120984       0.06482201      -0.15973377
Si      12.90475912      12.67026555      14.39941495       0.01088163      -0.52917665      -0.01887450
5
Lattice="27.25 0.0 0.0 0.0 27.25 0.0 0.0 0.0 27.25" Properties=species:S:1:pos:R:3:forces:R:3 energy=-43.72134678547729 bias_energy=-43.72118102055822 name=N pbc="T T T"
Si      13.61744455      14.94957229      14.14818842      -0.32376741       0.10200009      -0.13155276
Si      11.87287503      13.90910873      12.87363877      -0.05912982      -0.10995680       0.51736359
Si      15.37516407      13.33548852      14.37712078       0.19539086       0.45814578      -0.20795265
Si      14.14370588      13.38253895      12.32086228       0.14937982       0.04304219      -0.15287724
Si      13.11581047      12.54829150      14.40518975       0.03812655      -0.49323125      -0.02498094
5
Lattice="27.25 0.0 0.0 0.0 27.25 0.0 0.0 0.0 27.25" Properties=species:S:1:pos:R:3:forces:R:3 energy=-43.72135448461489 bias_energy=-43.72114166186426 name=N pbc="T T T"
Si      13.47847364      14.93073268      14.17539056      -0.30469676       0.09174897      -0.16372939
Si      11.78850607      13.66156693      13.04266993      -0.03628113      -0.12959217       0.55637503
Si      15.46043935      13.58196166      14.20752616       0.15454149       0.47896543      -0.21699284
Si      14.04914417      13.47072431      12.27395754       0.13502277       0.00703628      -0.14569346
Si      13.34843677      12.48001442      14.42545582       0.05141363      -0.44815851      -0.02995934
5
Lattice="27.25 0.0 0.0 0.0 27.25 0.0 0.0 0.0 27.25" Properties=species:S:1:pos:R:3:forces:R:3 energy=-43.72135576434644 bias_energy=-43.72089095338451 name=N pbc="T T T"
Si      13.36378725      14.91529418      14.17241265      -0.28140013       0.09624433      -0.20661269
Si      11.75081887      13.40696315      13.23624509      -0.00545808      -0.13667402       0.59734083
Si      15.49871951      13.83476047      14.01514455       0.10759951       0.47985386      -0.21687759
Si      13.92764244      13.49443357      12.23845996       0.13588926      -0.03665049      -0.13905292
Si      13.58403192      12.47354863      14.46273775       0.04336944      -0.40277367      -0.03479763
5
Lattice="27.25 0.0 0.0 0.0 27.25 0.0 0.0 0.0 27.25" Properties=species:S:1:pos:R:3:forces:R:3 energy=-43.721316417426905 bias_energy=-43.72046719443209 name=N pbc="T T T"
Si      13.25994980      14.90609453      14.13606782      -0.26450786       0.10844377      -0.25550843
Si      11.76320315      13.15633843      13.45827014       0.03054133      -0.12349182       0.63198084
Si      15.48703897      14.08469741      13.79462023       0.06507729       0.45654940      -0.20052812
Si      13.79659601      13.44784744      12.22029605       0.15488560      -0.07287036      -0.13075954
Si      13.81821207      12.53002220      14.51574575       0.01400365      -0.36863099      -0.04518474
5
Lattice="27.25 0.0 0.0 0.0 27.25 0.0 0.0 0.0 27.25" Properties=species:S:1:pos:R:3:forces:R:3 energy=-43.72148699802213 bias_energy=-43.72128724292996 name=N pbc="T T T"
Si      13.12513919      14.88967758      14.05088086      -0.25962833       0.11598215      -0.30206397
Si      11.85413451      12.88009864      13.76253797       0.06584685      -0.09039424       0.65207026
Si      15.39721139      14.37146747      13.48770828       0.03795899       0.41626308      -0.16549013
Si      13.65423797      13.30100168      12.23736423       0.18802685      -0.08816297      -0.12234969
Si      14.09427694      12.68275462      14.58650867      -0.03220436      -0.35368802      -0.06216647
5
Lattice="27.25 0.0 0.0 0.0 27.25 0.0 0.0 0.0 27.25" Properties=species:S:1:pos:R:3:forces:R:3 energy=-43.721502598373604 bias_energy=-43.72126522751434 name=N pbc="T T T"
Si      12.91661988      14.83582019      13.87417890      -0.26388827       0.10801881      -0.34525103
Si      12.08022832      12.61161956      14.17014340       0.09840595      -0.03268977       0.64816645
Si      15.16867646      14.64170515      13.08022424       0.03726712       0.36352935      -0.10451332
Si      13.56875205      13.01857552      12.33669157       0.23081775      -0.07162655      -0.11768989
Si      14.39072328      13.01727958      14.66376189      -0.10260254      -0.36723185      -0.08071222
5
Lattice="27.25 0.0 0.0 0.0 27.25 0.0 0.0 0.0 27.25" Properties=species:S:1:pos:R:3:forces:R:3 energy=-43.72110648906534 bias_energy=-43.71796838163569 name=N pbc="T T T"
Si      12.49884882      14.49281530      13.51665703      -0.27060954       0.06588327      -0.36003741
Si      12.56385960      12.38824512      14.65378437       0.10949644       0.04242220       0.59729518
Si      14.68013603      14.86901425      12.60140908       0.07695980       0.32856399      -0.02070764
Si      13.85004329      12.62067363      12.63773398       0.25988655      -0.00712635      -0.13422005
Si      14.53211225      13.75425171      14.71541554      -0.17573325      -0.42974310      -0.08233007
5
Lattice="27.25 0.0 0.0 0.0 27.25 0.0 0.0 0.0 27.25" Properties=species:S:1:pos:R:3:forces:R:3 energy=-43.71727655071136 bias_energy=-43.7042507386904 name=N pbc="T T T"
Si      12.48185016      14.36075805      13.18288083      -0.22036108       0.01382207      -0.32668222
Si      12.59834576      11.99649751      13.57497780       0.06462339       0.07516486       0.49451413
Si      14.64582064      15.26142424      13.70630639       0.16126544       0.35486328       0.04681628
Si      14.53295099      13.10270895      12.65158887       0.21398926       0.09260453      -0.21375935
Si      13.86603245      13.40361125      15.00924611      -0.21951701      -0.53645474      -0.00088884
5
Lattice="27.25 0.0 0.0 0.0 27.25 0.0 0.0 0.0 27.25" Properties=species:S:1:pos:R:3:forces:R:3 energy=-43.716839288574974 bias_energy=-43.703887771592505 name=N pbc="T T T"
Si      12.40517592      14.21544032      13.17108659      -0.16440602       0.08345039      -0.27138608
Si      12.69057868      11.99302157      14.04799440       0.08219571      -0.02814308       0.76362071
Si      14.56702666      15.26431603      13.23460207       0.11175693       0.20626028      -0.26124541
Si      14.44594141      12.93002498      12.68600951       0.11045714       0.05333554      -0.21015439
Si      14.01627732      13.72219710      14.98530743      -0.14000376      -0.31490314      -0.02083483
5
Lattice="27.25 0.0 0.0 0.0 27.25 0.0 0.0 0.0 27.25" Properties=species:S:1:pos:R:3:forces:R:3 energy=-43.67172609790022 bias_energy=-43.618059038888916 name=N pbc="T T T"
Si      12.33324776      13.98693483      13.10415566      -0.15293118       0.09078536      -0.30531899
Si      12.85499612      12.14267346      14.61468476       0.09610294       0.02817467       0.67881638
Si      14.41416113      15.15711156      12.73298910       0.15180586       0.22709653      -0.09779254
Si      14.41937198      12.74295197      12.81735445       0.12132808       0.08999528      -0.24366425
Si      14.10322301      14.09532818      14.85581603      -0.21630570      -0.43605185      -0.03204061
5
Lattice="27.25 0.0 0.0 0.0 27.25 0.0 0.0 0.0 27.25" Properties=species:S:1:pos:R:3:forces:R:3 energy=-43.59147593769998 bias_energy=-43.484789175338925 name=N pbc="T T T"
Si      12.36156730      14.01472897      13.02933892      -0.14996170       0.11246768      -0.27055021
Si      12.89527836      11.94654255      14.28883323       0.07212755      -0.00357476       0.52744970
Si      14.41496184      15.33570773      13.12659737       0.21012570       0.30880644       0.02572656
Si      14.52405007      12.95774063      12.71616711       0.11645936       0.11616308      -0.30591733
Si      13.92914243      13.87028012      14.96406337      -0.24875091      -0.53386244       0.02329128
5
Lattice="27.25 0.0 0.0 0.0 27.25 0.0 0.0 0.0 27.25" Properties=species:S:1:pos:R:3:forces:R:3 energy=-43.58894403391341 bias_energy=-43.285391059940224 name=N pbc="T T T"
Si      12.36258047      14.00982399      13.02045807      -0.13721762       0.14485858      -0.28165677
Si      12.89137044      11.95451259      14.30014295       0.07293907      -0.02276011       0.64736154
Si      14.41328428      15.33344895      13.11396444       0.22193069       0.21818212      -0.08541828
Si      14.53065405      12.94993854      12.72672075       0.10548348       0.09441079      -0.27104661
Si      13.92711077      13.87727593      14.96371379      -0.26313562      -0.43469137      -0.00923987
5
Lattice="27.25 0.0 0.0 0.0 27.25 0.0 0.0 0.0 27.25" Properties=species:S:1:pos:R:3:forces:R:3 energy=-43.35510080986175 bias_energy=-43.15551812509946 name=N pbc="T T T"
Si      12.37988181      13.97027504      12.92099242      -0.13976928       0.14523221      -0.27537489
Si      12.87086322      12.05460952      14.57880732       0.07368687      -0.02534243       0.64455135
Si      14.49589146      15.24456377      12.92892010       0.22050088       0.22206143      -0.08481893
Si      14.50203323      12.83182475      12.78661795       0.10408175       0.09748519      -0.27672156
Si      13.87633027      14.02372693      14.90966221      -0.25850023      -0.43943640      -0.00763597
