5
Lattice="27.25 0.0 0.0 0.0 27.25 0.0 0.0 0.0 27.25" Properties=species:S:1:pos:R:3:forces:R:3 energy=-41.24984075663356 bias_energy=0 name=N0 pbc="T T T"
Si      12.36110044      14.64697649      14.10189689      -0.29038790       0.09576893      -0.20224946
Si      15.78109674      12.75421518      13.65078797       0.21970932       0.12184065       0.04545691
Si      14.57137134      14.12007584      14.93790396      -0.35900628       0.12928054      -0.21138986
Si      11.85248271      13.74039174      12.12726769       0.59073649      -0.34088950       0.34409435
Si      13.55894878      12.86334076      13.30714348      -0.16105163      -0.00600062       0.02408806
5
Lattice="27.25 0.0 0.0 0.0 27.25 0.0 0.0 0.0 27.25" Properties=species:S:1:pos:R:3:forces:R:3 energy=-41.24996583419326 bias_energy=-41.249296902651466 name=N pbc="T T T"
Si      12.28255285      14.60958711      13.96095846      -0.31887140       0.10815999      -0.21194718
Si      15.82656219      12.90474473      13.78493999       0.15846948       0.24707209       0.11892583
Si      14.48785442      14.28176248      14.93329337      -0.35195925       0.22330823      -0.18242587
Si      11.91619682      13.49324654      12.05920271       0.50136170      -0.48474402       0.11338662
Si      13.61183372      12.83565914      13.38660547       0.01099948      -0.09379629       0.16206060
