5
Lattice="27.25 0.0 0.0 0.0 27.25 0.0 0.0 0.0 27.25" Properties=species:S:1:pos:R:3:forces:R:3 name=N0 pbc="T T T"
Si      12.89489234      12.53924177      15.03919157      -0.13199236      -0.67163064       0.16112183
Si      14.35575223      14.71042210      12.21005174       0.15933866      -0.23705585      -0.40282938
Si      12.44384852      13.41771792      12.85602013      -0.02638077       0.21731310       0.16350157
Si      14.72356814      12.72564955      13.50006556      -0.00934592       0.26729465       0.21561016
Si      13.70693877      14.73196866      14.51967100      -0.04679730       0.21162987       0.14839765
5
Lattice="27.25 0.0 0.0 0.0 27.25 0.0 0.0 0.0 27.25" Properties=species:S:1:pos:R:3:forces:R:3 name=N pbc="T T T"
Si      12.89489234      12.53924177      15.03919157      -0.24493968      -0.64361067      -0.07345839
Si      14.35575223      14.71042210      12.21005174       0.01623289      -0.26569057      -0.57013925
Si      12.44384852      13.41771792      12.85602013       0.12438782       0.05021474       0.02817650
Si      14.72356814      12.72564955      13.50006556      -0.16669902       0.18386653      -0.01636556
Si      13.70693877      14.73196866      14.51967100       0.02796616       0.18302003       0.09762416
5
Lattice="27.25 0.0 0.0 0.0 27.25 0.0 0.0 0.0 27.25" Properties=species:S:1:pos:R:3:forces:R:3 name=N pbc="T T T"
Si      12.59976047      11.97783344      14.41992365       0.08168973      -0.69653185       0.06622121
Si      14.08345299      14.15324357      11.60799527       0.37699497      -0.28157938      -0.40029593
Si      12.17454517      12.85614883      12.23721138       0.11276023       0.02539964       0.06192456
Si      14.44741192      12.16382411      12.90110571      -0.17800030       0.16931946      -0.00122467
Si      13.43409354      14.16772092      13.91328920       0.02937053       0.18273189       0.10165141
