5
Lattice="27.25 0.0 0.0 0.0 27.25 0.0 0.0 0.0 27.25" Properties=species:S:1:pos:R:3:forces:R:3 energy=-43.7214970487039 bias_energy=0 name=N0 pbc="T T T"
Si      14.31550097      13.23052267      12.44185144      -0.25743078      -0.11255067       0.10248303
Si      14.42487639      15.37402188      13.50852031       0.59455333       0.21309392      -0.31022349
Si      12.32977733      14.21112837      13.53369357      -0.32375723      -0.02562233      -0.04745676
Si      12.82449112      11.87536399      13.73943536       0.33040448      -0.02575600       0.27710131
Si      14.23035419      13.43396309      14.90149932      -0.34376980      -0.04916492      -0.02190409
5
Lattice="27.25 0.0 0.0 0.0 27.25 0.0 0.0 0.0 27.25" Properties=species:S:1:pos:R:3:forces:R:3 energy=-43.721410760806876 bias_energy=-43.72102988935782 name=N pbc="T T T"
Si      14.28029665      12.97576033      12.53845913      -0.29484417      -0.12822698       0.04626836
Si      14.50171772      15.27854288      13.17042991       0.56068262       0.02375891      -0.38994978
Si      12.35618708      14.24166978      13.41938747      -0.19784045       0.03084692      -0.07450057
Si      12.74763021      11.97362681      14.08648700       0.29010878      -0.08094268       0.36966437
Si      14.23916833      13.65540020      14.91023650      -0.35810677       0.15456384       0.04851761
5
Lattice="27.25 0.0 0.0 0.0 27.25 0.0 0.0 0.0 27.25" Properties=species:S:1:pos:R:3:forces:R:3 energy=-43.72150448564968 bias_energy=-43.720994905241305 name=N pbc="T T T"
Si      14.24835262      12.74107521      12.69733011      -0.30737516      -0.11732605       0.05791065
Si      14.55116700      15.11331424      12.82990930       0.55325082      -0.01058666      -0.35661118
Si      12.37634984      14.23354033      13.30524621      -0.19622315       0.00996864      -0.09298372
Si      12.69615983      12.13611685      14.41783705       0.30744005      -0.05748374       0.38944025
Si      14.25297071      13.90095336      14.87467733      -0.35709255       0.17542781       0.00224400
