5
Lattice="27.25 0.0 0.0 0.0 27.25 0.0 0.0 0.0 27.25" Properties=species:S:1:pos:R:3:forces:R:3 energy=-43.72146631162464 bias_energy=0 name=N0 pbc="T T T"
Si      13.48149129      14.08903060      15.48904105       0.18694749       0.09672629      -0.58240251
Si      13.76993249      13.15995532      11.76151242       0.00662992       0.13438121       0.60885198
Si      12.42538193      12.86040549      13.72060040      -0.06977826      -0.19585966      -0.03402703
Si      14.88749320      13.00980992      13.87751848      -0.31028730       0.14245324       0.01712631
Si      13.56070109      15.00579867      13.27632765       0.18648816      -0.17770107      -0.00954875
5
Lattice="27.25 0.0 0.0 0.0 27.25 0.0 0.0 0.0 27.25" Properties=species:S:1:pos:R:3:forces:R:3 energy=-43.72152509289842 bias_energy=-43.72102751208168 name=N pbc="T T T"
Si      13.48092694      14.40083775      15.38217255       0.15625156       0.39460231      -0.55765461
Si      13.76953756      12.84724202      11.86883119       0.00582323      -0.03659969       0.52497825
Si      12.37202845      12.97006391      13.81053031      -0.14320350      -0.21189681       0.06385040
Si      14.83451441      12.97694253      14.01233131      -0.22289315      -0.05514938       0.15664698
Si      13.66799265      14.92991379      13.05113464       0.20402186      -0.09095642      -0.18782102
