5
Lattice="27.25 0.0 0.0 0.0 27.25 0.0 0.0 0.0 27.25" Properties=species:S:1:pos:R:3:forces:R:3 energy=-43.72148224982845 bias_energy=0 name=N0 pbc="T T T"
Si      14.07441382      13.37448906      14.95499428      -0.25225267       0.07628892      -0.11588111
Si      13.18250343      15.43360652      14.11425619       0.58984226      -0.10862345       0.42156174
Si      14.06586932      11.81694080      13.13163160       0.14766264      -0.34499100      -0.02156782
Si      14.53786649      14.11423428      12.64653298      -0.26998231       0.23606358      -0.18162988
Si      12.26434695      13.38572934      13.27758495      -0.21526992       0.14126194      -0.10248294
5
Lattice="27.25 0.0 0.0 0.0 27.25 0.0 0.0 0.0 27.25" Properties=species:S:1:pos:R:3:forces:R:3 energy=-43.72123264716526 bias_energy=-43.72089683110837 name=N pbc="T T T"
Si      14.13237802      13.13930946      14.86499439      -0.22611334      -0.08946472      -0.11293941
Si      13.47800439      15.39384272      14.37331412       0.62275228      -0.04098036       0.49754637
Si      13.77540390      11.86052506      12.86771105       0.07758079      -0.19105676      -0.03707464
Si      14.51882921      14.12296200      12.63388017      -0.31953745       0.13893956      -0.23745292
Si      12.22038448      13.60836075      13.38510027      -0.15468228       0.18256228      -0.11007940
5
Lattice="27.25 0.0 0.0 0.0 27.25 0.0 0.0 0.0 27.25" Properties=species:S:1:pos:R:3:forces:R:3 energy=-43.721380469489816 bias_energy=-43.720741240226005 name=N pbc="T T T"
Si      14.16955939      12.89797719      14.72310523      -0.24674058      -0.05002316      -0.12062624
Si      13.81058170      15.26743811      14.61719387       0.62142688      -0.10934118       0.45948498
Si      13.43971726      11.98662826      12.62784302       0.10312827      -0.20224816      -0.01145280
Si      14.48709196      14.14052212      12.61425365      -0.34017251       0.17723117      -0.22483601
Si      12.21804970      13.83243432      13.54260423      -0.13764206       0.18438131      -0.10256992
5
Lattice="27.25 0.0 0.0 0.0 27.25 0.0 0.0 0.0 27.25" Properties=species:S:1:pos:R:3:forces:R:3 energy=-43.72145974608587 bias_energy=-43.72110954518947 name=N pbc="T T T"
Si      14.16658407      12.62835331      14.48712330      -0.26097595      -0.00661198      -0.11941872
Si      14.22806157      14.99636008      14.83642167       0.61188537      -0.17394347       0.41250943
Si      13.02211586      12.25148584      12.41580014       0.12660500      -0.22836561       0.00314229
Si      14.42934827      14.18697671      12.58872040      -0.35499848       0.22339909      -0.19977287
Si      12.27889023      14.06182406      13.79693448      -0.12251594       0.18552196      -0.09646013
5
Lattice="27.25 0.0 0.0 0.0 27.25 0.0 0.0 0.0 27.25" Properties=species:S:1:pos:R:3:forces:R:3 energy=-43.72109203063492 bias_energy=-43.71921813967073 name=N pbc="T T T"
Si      14.10534319      12.38366679      14.13315000      -0.26668379       0.04654439      -0.10498740
Si      14.68381703      14.56307267      14.93503580       0.58850882      -0.23672784       0.35025157
Si      12.56876242      12.67664376      12.32064767       0.14868595      -0.27895960       0.00442348
Si      14.32630670      14.28969188      12.57624375      -0.36334449       0.28038328      -0.15455700
Si      12.44077066      14.21192489      14.15992278      -0.10716648       0.18875977      -0.09513066
5
Lattice="27.25 0.0 0.0 0.0 27.25 0.0 0.0 0.0 27.25" Properties=species:S:1:pos:R:3:forces:R:3 energy=-43.71428071649455 bias_energy=-43.69861954489571 name=N pbc="T T T"
Si      13.98630880      12.28077807      13.34722063      -0.24747110       0.10431874      -0.07433562
Si      15.26859469      13.84319385      14.62589295       0.54208777      -0.27482866       0.28531444
Si      12.00139787      13.36344545      12.61996555       0.16395153      -0.36588271      -0.01725796
Si      14.00545569      14.68558581      12.74473844      -0.35876017       0.33522771      -0.08617940
Si      12.86324296      13.95199682      14.78718242      -0.09980803       0.20116492      -0.10754145
5
Lattice="27.25 0.0 0.0 0.0 27.25 0.0 0.0 0.0 27.25" Properties=species:S:1:pos:R:3:forces:R:3 energy=-43.704144676986154 bias_energy=-43.68277519802917 name=N pbc="T T T"
Si      14.34080941      12.40868408      13.54256892      -0.08320554       0.16900591      -0.04015896
Si      15.00639673      14.31721591      14.79084882       0.39803295      -0.16803753       0.33859982
Si      12.28538675      12.86389185      12.46611615       0.14349508      -0.56968472      -0.11135875
Si      13.84997777      14.68724289      12.68922869      -0.29780104       0.28015822      -0.02162004
Si      12.64242933      13.84796526      14.63623741      -0.16052144       0.28855812      -0.16546207
5
Lattice="27.25 0.0 0.0 0.0 27.25 0.0 0.0 0.0 27.25" Properties=species:S:1:pos:R:3:forces:R:3 energy=-43.61146014826025 bias_energy=-43.498985390251555 name=N pbc="T T T"
Si      14.33769413      12.42878955      13.53097527      -0.18834491       0.15140031      -0.08369688
Si      15.03967758      14.26625125      14.80560445       0.49211456      -0.27561306       0.29991544
Si      12.31247618      12.81077870      12.46217555       0.17323778      -0.43494009      -0.04566852
Si      13.81177016      14.72591453      12.70723931      -0.31774825       0.27276463      -0.02222452
Si      12.62338195      13.89326597      14.61900542      -0.15925918       0.28638822      -0.14832551
5
Lattice="27.25 0.0 0.0 0.0 27.25 0.0 0.0 0.0 27.25" Properties=species:S:1:pos:R:3:forces:R:3 energy=-43.50009522602764 bias_energy=-43.30861964777929 name=N pbc="T T T"
Si      14.33941364      12.44670834      13.52619931      -0.17759589       0.16659049      -0.07070241
Si      15.06097657      14.23504783      14.82007688       0.49710009      -0.26712264       0.31124916
Si      12.33070379      12.77209224      12.45867024       0.17316859      -0.43362865      -0.04184226
Si      13.78380662      14.74968774      12.71245775      -0.32361434       0.26211106      -0.05018166
Si      12.61009939      13.92146385      14.60759581      -0.16905845       0.27204974      -0.14852283
5
Lattice="27.25 0.0 0.0 0.0 27.25 0.0 0.0 0.0 27.25" Properties=species:S:1:pos:R:3:forces:R:3 energy=-43.43223559175233 bias_energy=-43.30189930657787 name=N pbc="T T T"
Si      14.65498507      13.89995459      12.69239738      -0.16769269       0.17581959      -0.06165650
Si      14.81337430      14.26909833      15.05421479       0.50269664      -0.26207680       0.32399556
Si      12.65831456      12.70198937      12.21509343       0.16972568      -0.42619766      -0.03878685
Si      12.63882684      14.72883172      13.73105816      -0.33110683       0.25277126      -0.07466232
Si      13.35949924      12.52512599      14.43223623      -0.17362280       0.25968361      -0.14888989
5
Lattice="27.25 0.0 0.0 0.0 27.25 0.0 0.0 0.0 27.25" Properties=species:S:1:pos:R:3:forces:R:3 energy=-43.34136933154912 bias_energy=-43.227137037430204 name=N pbc="T T T"
Si      14.67940314      13.32941794      12.74630736      -0.26061492       0.18972532      -0.07347378
Si      14.96987090      14.44643326      14.79820702       0.54776723      -0.24550426       0.26699398
Si      12.51681410      12.46209026      12.53517747       0.17927306      -0.40696635      -0.00958591
Si      12.89011411      14.87218234      13.27431502      -0.19491117       0.19452819      -0.19878126
Si      13.06879776      13.01487621      14.77099312      -0.27151420       0.26821710       0.01484697
5
Lattice="27.25 0.0 0.0 0.0 27.25 0.0 0.0 0.0 27.25" Properties=species:S:1:pos:R:3:forces:R:3 energy=-43.23027130772514 bias_energy=-43.04894366847025 name=N pbc="T T T"
Si      14.71823982      13.15615513      12.88138851      -0.22463027       0.21770490      -0.10540514
Si      14.95379937      14.22107216      14.95317000       0.51739354      -0.28775048       0.33188374
Si      12.51528117      12.60822571      12.41304743       0.17663434      -0.38263769       0.00857607
Si      13.13943865      14.96002783      13.17096175      -0.21953477       0.16146361      -0.15981107
Si      12.79824099      13.17951917      14.70643232      -0.24986284       0.29121966      -0.07524360
5
Lattice="27.25 0.0 0.0 0.0 27.25 0.0 0.0 0.0 27.25" Properties=species:S:1:pos:R:3:forces:R:3 energy=-43.03806755469533 bias_energy=-42.89610437894063 name=N pbc="T T T"
Si      14.70834901      13.11198144      12.84817308      -0.20129241       0.22478045      -0.08542795
Si      15.00712319      14.40194983      14.76959028       0.51310245      -0.27253677       0.32098840
Si      12.51829176      12.34796992      12.71594822       0.16062592      -0.41096506       0.01554085
Si      13.06300623      14.84717965      12.96133865      -0.27398147       0.15480590      -0.16933010
Si      12.82822982      13.41591916      14.82994977      -0.19845449       0.30391548      -0.08177119
5
Lattice="27.25 0.0 0.0 0.0 27.25 0.0 0.0 0.0 27.25" Properties=species:S:1:pos:R:3:forces:R:3 energy=-42.953904544073026 bias_energy=-42.698415017433874 name=N pbc="T T T"
Si      14.71420093      13.13513204      12.82698284      -0.21698967       0.22636901      -0.10752437
Si      15.01832792      14.36653944      14.78849857       0.50988308      -0.28885980       0.37399580
Si      12.52321109      12.34592000      12.72642039       0.16190683      -0.36445547       0.02344886
Si      13.05022775      14.84168452      12.94885144      -0.26984826       0.15546817      -0.15727055
Si      12.81903230      13.43572400      14.83424677      -0.18495199       0.27147809      -0.13264975
5
Lattice="27.25 0.0 0.0 0.0 27.25 0.0 0.0 0.0 27.25" Properties=species:S:1:pos:R:3:forces:R:3 energy=-42.718518260390226 bias_energy=-42.605670920321806 name=N pbc="T T T"
Si      14.76577972      13.29009748      12.62979661      -0.21925773       0.22721835      -0.09211241
Si      15.00311039      14.17650184      14.79958393       0.51274903      -0.28726686       0.37923118
Si      12.61330779      12.32731929      12.80365991       0.15863939      -0.35450243       0.02267994
Si      13.01301419      14.84122193      12.99513567      -0.28630837       0.14763113      -0.17376709
Si      12.72978791      13.48985945      14.89682388      -0.16582233       0.26691980      -0.13603161
5
Lattice="27.25 0.0 0.0 0.0 27.25 0.0 0.0 0.0 27.25" Properties=species:S:1:pos:R:3:forces:R:3 energy=-42.664843018722515 bias_energy=-42.467597849026696 name=N pbc="T T T"
Si      14.78792967      13.44694325      12.48018373      -0.26463548       0.21045865      -0.03046384
Si      14.95989849      14.12238126      14.73657219       0.52564553      -0.23819451       0.38961772
Si      12.76709615      12.25589057      12.91082935       0.13961105      -0.36197789       0.01048292
Si      12.92426473      14.80590295      13.03157517      -0.30092451       0.14816720      -0.19396532
Si      12.68581096      13.49388197      14.96583956      -0.09969659       0.24154655      -0.17567148
5
Lattice="27.25 0.0 0.0 0.0 27.25 0.0 0.0 0.0 27.25" Properties=species:S:1:pos:R:3:forces:R:3 energy=-43.0119215850558 bias_energy=-43.01192103150296 name=N pbc="T T T"
Si      14.72179292      14.03108135      12.39031133      -0.29814830       0.17820839       0.00447171
Si      14.96772388      13.44888883      14.65675512       0.54353573      -0.19089451       0.40014388
Si      13.30369873      12.25944204      13.31005274       0.11966853      -0.36322627      -0.00780641
Si      12.44263262      14.48275154      12.74953300      -0.28859865       0.15404618      -0.18817937
Si      12.68915185      13.90283624      15.01834781      -0.07645730       0.22186621      -0.20862981
5
Lattice="27.25 0.0 0.0 0.0 27.25 0.0 0.0 0.0 27.25" Properties=species:S:1:pos:R:3:forces:R:3 energy=-43.72151427971711 bias_energy=-43.72151427242391 name=N pbc="T T T"
Si      14.49648161      14.37493056      12.78249857      -0.33780743       0.09999450       0.07602246
Si      15.12221173      13.13216438      14.73182693       0.52781388      -0.19092606       0.38096904
Si      13.37521347      12.24990229      13.34889999       0.22100868      -0.17868487       0.06437762
Si      12.12772426      14.11810925      12.51652102      -0.38986622       0.12286024      -0.25716795
Si      13.00336893      14.24989353      14.74525350      -0.02114891       0.14675619      -0.26420116
