5
Lattice="27.25 0.0 0.0 0.0 27.25 0.0 0.0 0.0 27.25" Properties=species:S:1:pos:R:3:forces:R:3 name=N0 pbc="T T T"
Si      12.65951789      13.66733028      15.00995490       0.39630529      -0.16607960      -0.12294156
Si      15.47350413      14.14405190      12.31177174      -0.33746887      -0.18454391       0.35632683
Si      14.93964400      14.25966140      14.48160086      -0.51489125      -0.36569441      -0.34176868
Si      11.40368852      13.02422389      13.27929298       0.08066245       0.04638652       0.00183171
Si      13.64864545      13.02973252      13.04237952      -0.02322901       0.01860192      -0.01167107
5
Lattice="27.25 0.0 0.0 0.0 27.25 0.0 0.0 0.0 27.25" Properties=species:S:1:pos:R:3:forces:R:3 name=N pbc="T T T"
Si      12.65951789      13.66733028      15.00995490       0.28890382       0.09900483      -0.32528439
Si      15.47350413      14.14405190      12.31177174      -0.30366764      -0.07596741       0.21334763
Si      14.93964400      14.25966140      14.48160086      -0.62714933      -0.32411402      -0.27675822
Si      11.40368852      13.02422389      13.27929298       0.22701515       0.09964021      -0.04767566
Si      13.64864545      13.02973252      13.04237952       0.09113427       0.05164113      -0.08803305
