5
Lattice="27.25 0.0 0.0 0.0 27.25 0.0 0.0 0.0 27.25" Properties=species:S:1:pos:R:3:forces:R:3 energy=-43.721514340591625 bias_energy=0 name=N0 pbc="T T T"
Si      13.55653451      15.47905342      14.14279290      -0.13512400      -0.42968101      -0.09182124
Si      13.96031844      14.00985984      12.29286672       0.10060601      -0.33791807      -0.03503545
Si      14.65524748      13.39571106      14.58182916       0.19183182       0.27155515      -0.13704084
Si      13.69348590      11.77081881      13.10801385      -0.16963833       0.66234640       0.17505224
Si      12.25941367      13.46955687      13.99949736       0.01232450      -0.16630246       0.08884530
5
Lattice="27.25 0.0 0.0 0.0 27.25 0.0 0.0 0.0 27.25" Properties=species:S:1:pos:R:3:forces:R:3 energy=-43.72150328032495 bias_energy=-43.72051472565936 name=N pbc="T T T"
Si      13.41956015      15.51641179      13.92096636      -0.27566752      -0.32903998      -0.17842275
Si      13.75072154      13.85948037      12.22499014       0.08184988      -0.31343953      -0.12175285
Si      14.78458122      13.62084776      14.45585830       0.35167497       0.37265069      -0.16850925
Si      13.83089099      11.73345210      13.32485135      -0.16976195       0.44902245       0.25269513
Si      12.33924610      13.39480798      14.19833387       0.01190462      -0.17919363       0.21598971
5
Lattice="27.25 0.0 0.0 0.0 27.25 0.0 0.0 0.0 27.25" Properties=species:S:1:pos:R:3:forces:R:3 energy=-43.72143203794059 bias_energy=-43.721109763786174 name=N pbc="T T T"
Si      13.24459527      15.51336595      13.69731102      -0.28810016      -0.34685404      -0.19313007
Si      13.61615125      13.67639549      12.20091779       0.07336482      -0.33799580      -0.10656482
Si      14.83712557      13.84318338      14.34288745       0.28139031       0.39368067      -0.18645335
Si      14.00830090      11.73795263      13.55084257      -0.09726923       0.44815965       0.29513291
Si      12.41882701      13.35410255      14.33304117       0.03061425      -0.15699048       0.19101533
5
Lattice="27.25 0.0 0.0 0.0 27.25 0.0 0.0 0.0 27.25" Properties=species:S:1:pos:R:3:forces:R:3 energy=-43.72144047916303 bias_energy=-43.72122358500953 name=N pbc="T T T"
Si      13.06627737      15.46438087      13.48811590      -0.28480619      -0.36983396      -0.19979673
Si      13.54999205      13.49508596      12.20752709       0.07497094      -0.35550552      -0.08086540
Si      14.84077610      14.04173974      14.24293681       0.21478415       0.39393974      -0.19805165
Si      14.18552877      11.78591343      13.76032128      -0.04077905       0.46426764       0.31800744
Si      12.48242570      13.33788001      14.42609892       0.03583016      -0.13286790       0.16070635
5
Lattice="27.25 0.0 0.0 0.0 27.25 0.0 0.0 0.0 27.25" Properties=species:S:1:pos:R:3:forces:R:3 energy=-43.72145200403609 bias_energy=-43.72124068597059 name=N pbc="T T T"
Si      12.89884650      15.37932358      13.29517740      -0.27021553      -0.39495939      -0.19753663
Si      13.52780401      13.32281697      12.23544704       0.08573824      -0.36087117      -0.05388821
Si      14.81250914      14.21628917      14.14792172       0.16145245       0.37888154      -0.20620300
Si      14.35339665      11.87039523      13.95331015      -0.00930738       0.49198127       0.32428000
Si      12.53244370      13.33617506      14.49314369       0.03233222      -0.11503225       0.13334783
5
Lattice="27.25 0.0 0.0 0.0 27.25 0.0 0.0 0.0 27.25" Properties=species:S:1:pos:R:3:forces:R:3 energy=-43.721520365641474 bias_energy=-43.7212735380164 name=N pbc="T T T"
Si      12.74867579      15.26422535      13.12056412      -0.25056790      -0.41735595      -0.19024016
Si      13.53769851      13.16449870      12.27901451       0.09851964      -0.35863375      -0.02819584
Si      14.76358944      14.36718472      14.05501657       0.12004066       0.35701265      -0.21332009
Si      14.50382273      11.98543065      14.12756746       0.00571538       0.52273750       0.32169521
Si      12.57121354      13.34366058      14.54283735       0.02629223      -0.10376045       0.11006087
