5
Lattice="27.25 0.0 0.0 0.0 27.25 0.0 0.0 0.0 27.25" Properties=species:S:1:pos:R:3:forces:R:3 energy=-43.721535301849386 bias_energy=0 name=N0 pbc="T T T"
Si      13.90622676      14.64710713      12.67199895       0.02089884      -0.13171320       0.06295514
Si      15.24788471      12.71448707      13.12880054      -0.21077711       0.55811456      -0.47768398
Si      12.86714322      12.48128488      13.23988387       0.00862164      -0.09863296       0.04242033
Si      12.00112237      14.53567159      14.12197240       0.20850555      -0.29304173       0.48777085
Si      14.10262294      13.74644934      14.96234423      -0.02724892      -0.03472667      -0.11546233
5
Lattice="27.25 0.0 0.0 0.0 27.25 0.0 0.0 0.0 27.25" Properties=species:S:1:pos:R:3:forces:R:3 energy=-43.721471886929045 bias_energy=-43.72138073743873 name=N pbc="T T T"
Si      13.74733129      14.71895838      12.71962884      -0.14064152       0.00001969       0.04309205
Si      15.23585207      12.84709850      12.90922155      -0.10483374       0.49668005      -0.54565684
Si      12.89426803      12.46153255      13.24242624       0.01227194      -0.10761587       0.04306777
Si      12.01415097      14.40210781      14.34178250       0.13854682      -0.29032763       0.53106819
Si      14.23339763      13.69530276      14.91194088       0.09465650      -0.09875624      -0.07157116
5
Lattice="27.25 0.0 0.0 0.0 27.25 0.0 0.0 0.0 27.25" Properties=species:S:1:pos:R:3:forces:R:3 energy=-43.72144804952226 bias_energy=-43.72127330076601 name=N pbc="T T T"
Si      13.59951957      14.77506708      12.78235500      -0.14140867      -0.01449496       0.06894887
Si      15.19641786      12.98450244      12.71226556      -0.13844021       0.50691133      -0.52955626
Si      12.92221693      12.44516229      13.24156966       0.02095729      -0.10123087       0.04093689
Si      12.05431213      14.26429895      14.53814694       0.16401228      -0.29950769       0.51319044
Si      14.35253350      13.65596924      14.85066284       0.09487931      -0.09167781      -0.09351994
5
Lattice="27.25 0.0 0.0 0.0 27.25 0.0 0.0 0.0 27.25" Properties=species:S:1:pos:R:3:forces:R:3 energy=-43.72150445907563 bias_energy=-43.721266274184586 name=N pbc="T T T"
Si      13.46184471      14.81730067      12.85891326      -0.13884114      -0.02998738       0.09151164
Si      15.13272825      13.12653241      12.53375898      -0.16983746       0.51592598      -0.51162744
Si      12.95038629      12.43196583      13.23678100       0.02842179      -0.09513996       0.03820757
Si      12.11768766      14.12093254      14.71643924       0.18791416      -0.30671111       0.49544961
Si      14.46235310      13.62826855      14.77910752       0.09234265      -0.08408751      -0.11354139
5
Lattice="27.25 0.0 0.0 0.0 27.25 0.0 0.0 0.0 27.25" Properties=species:S:1:pos:R:3:forces:R:3 energy=-43.721497447684754 bias_energy=-43.72120304530082 name=N pbc="T T T"
Si      13.33105196      14.84710076      12.95010261      -0.13339882      -0.04649833       0.11143160
Si      15.04767037      13.27325545      12.37395453      -0.19936810       0.52392421      -0.49221122
Si      12.97812113      12.41935148      13.22797103       0.03509099      -0.08891383       0.03537798
Si      12.20301053      13.97553571      14.87579682       0.21062521      -0.31218253       0.47753260
Si      14.56514601      13.60975661      14.69717501       0.08705073      -0.07632952      -0.13213095
5
Lattice="27.25 0.0 0.0 0.0 27.25 0.0 0.0 0.0 27.25" Properties=species:S:1:pos:R:3:forces:R:3 energy=-43.721498510967194 bias_energy=-43.72120213411637 name=N pbc="T T T"
Si      13.20804702      14.86460115      13.05505163      -0.12529832      -0.06393707       0.12912704
Si      14.94035081      13.42459214      12.23159155      -0.22756634       0.53090792      -0.47103993
Si      13.00576823      12.40925370      13.21529212       0.04071843      -0.08261025       0.03197430
Si      12.31017785      13.82532388      15.01801552       0.23244632      -0.31626171       0.45946252
Si      14.66065609      13.60122912      14.60504918       0.07969992      -0.06809889      -0.14952392
5
Lattice="27.25 0.0 0.0 0.0 27.25 0.0 0.0 0.0 27.25" Properties=species:S:1:pos:R:3:forces:R:3 energy=-43.721505532946765 bias_energy=-43.72121870348708 name=N pbc="T T T"
Si      13.09398464      14.86950527      13.17345330      -0.11470333      -0.08224396       0.14456124
Si      14.81144130      13.57930098      12.10781005      -0.25439383       0.53703702      -0.44825865
Si      13.03257512      12.40198190      13.19869386       0.04542358      -0.07619401       0.02835676
Si      12.43895917      13.67085851      15.14183627       0.25343348      -0.31885907       0.44109987
Si      14.74803976      13.60335334      14.50320652       0.07024009      -0.05973998      -0.16575922
5
Lattice="27.25 0.0 0.0 0.0 27.25 0.0 0.0 0.0 27.25" Properties=species:S:1:pos:R:3:forces:R:3 energy=-43.72134615699512 bias_energy=-43.7207820786249 name=N pbc="T T T"
Si      12.99459276      14.86201187      13.29746128      -0.10145402      -0.10190772       0.15769261
Si      14.66930769      13.72993638      12.01166836      -0.27993723       0.54251276      -0.42368683
Si      13.05636879      12.39379803      13.17838232       0.04937356      -0.06918888       0.02491030
Si      12.58108875      13.52604284      15.23843056       0.27383207      -0.31987873       0.42220840
Si      14.82364201      13.61321087      14.39905748       0.05818562      -0.05153742      -0.18112448
5
Lattice="27.25 0.0 0.0 0.0 27.25 0.0 0.0 0.0 27.25" Properties=species:S:1:pos:R:3:forces:R:3 energy=-43.72143712618642 bias_energy=-43.72110609135813 name=N pbc="T T T"
Si      12.90363146      14.84155714      13.43831850      -0.08631881      -0.12216450       0.16838458
Si      14.50201608      13.88276435      11.93123325      -0.30223640       0.54650271      -0.39907260
Si      13.08049483      12.39607908      13.15545032       0.05243503      -0.06129047       0.02171870
Si      12.74811248      13.36734694      15.31890841       0.29200493      -0.31945338       0.40450535
Si      14.89074515      13.63725248      14.28108952       0.04411524      -0.04359436      -0.19553603
5
Lattice="27.25 0.0 0.0 0.0 27.25 0.0 0.0 0.0 27.25" Properties=species:S:1:pos:R:3:forces:R:3 energy=-43.72148744613057 bias_energy=-43.72122657158458 name=N pbc="T T T"
Si      12.82635218      14.80603596      13.59128344      -0.06826334      -0.14331136       0.17553085
Si      14.31269912      14.03994234      11.87392307      -0.32434477       0.55053459      -0.37164404
Si      13.10106788      12.39809827      13.12867780       0.05464482      -0.05341312       0.01888182
Si      12.93752596      13.20921536      15.37588014       0.31053533      -0.31745388       0.38560011
Si      14.94735486      13.67170807      14.15523554       0.02742795      -0.03635623      -0.20836874
5
Lattice="27.25 0.0 0.0 0.0 27.25 0.0 0.0 0.0 27.25" Properties=species:S:1:pos:R:3:forces:R:3 energy=-43.721504965607835 bias_energy=-43.72125714160037 name=N pbc="T T T"
Si      12.76607533      14.75429638      13.75719519      -0.04724657      -0.16574017       0.17875396
Si      14.10002241      14.19514862      11.84846301      -0.34355132       0.55437824      -0.34299966
Si      13.11781213      12.40320524      13.09717541       0.05536857      -0.04493860       0.01701802
Si      13.15056779      13.05297542      15.40164791       0.32784238      -0.31338621       0.36725709
Si      14.99052233      13.71937433      14.02051848       0.00758694      -0.03031326      -0.22002941
5
Lattice="27.25 0.0 0.0 0.0 27.25 0.0 0.0 0.0 27.25" Properties=species:S:1:pos:R:3:forces:R:3 energy=-43.72150530098701 bias_energy=-43.72124796444839 name=N pbc="T T T"
Si      12.72448897      14.68569833      13.93582176      -0.02396621      -0.18912112       0.17791434
Si      13.86694750      14.34517101      11.85635058      -0.35887306       0.55770213      -0.31375209
Si      13.12984057      12.41311779      13.06233200       0.05499340      -0.03569364       0.01588695
Si      13.38469742      12.90175368      15.39263999       0.34298626      -0.30686127       0.35091232
Si      15.01902555      13.77925919      13.87785567      -0.01514038      -0.02602610      -0.23096153
5
Lattice="27.25 0.0 0.0 0.0 27.25 0.0 0.0 0.0 27.25" Properties=species:S:1:pos:R:3:forces:R:3 energy=-43.721339170939345 bias_energy=-43.721231976673494 name=N pbc="T T T"
Si      12.70744001      14.58924948      14.13913687       0.00230658      -0.21396849       0.17001157
Si      13.59183567      14.50086577      11.91251943      -0.36800335       0.56176750      -0.28570159
Si      13.13635243      12.42834244      13.02056504       0.05319851      -0.02543064       0.01706487
Si      13.65979748      12.75145547      15.33894307       0.35477838      -0.29687066       0.33879879
Si      15.02957440      13.85508684      13.71383560      -0.04228012      -0.02549771      -0.24017364
5
Lattice="27.25 0.0 0.0 0.0 27.25 0.0 0.0 0.0 27.25" Properties=species:S:1:pos:R:3:forces:R:3 energy=-43.721410081957465 bias_energy=-43.72115378652627 name=N pbc="T T T"
Si      12.73482441      14.47247502      14.34627355       0.03382278      -0.24137583       0.14953088
Si      13.29812371      14.63831722      12.02027889      -0.36552665       0.56758659      -0.26119597
Si      13.12822948      12.45387978      12.98333833       0.04785429      -0.01287795       0.02241197
Si      13.95430299      12.61115953      15.22928501       0.36117055      -0.28210752       0.33645102
Si      15.00951941      13.94916846      13.54582422      -0.07732097      -0.03122528      -0.24719791
5
Lattice="27.25 0.0 0.0 0.0 27.25 0.0 0.0 0.0 27.25" Properties=species:S:1:pos:R:3:forces:R:3 energy=-43.721431112189805 bias_energy=-43.72094321568754 name=N pbc="T T T"
Si      12.83341330      14.31892429      14.58939524       0.05973282      -0.26067875       0.10996373
Si      12.93891435      14.76898774      12.23751569      -0.33826072       0.58055417      -0.25384209
Si      13.08914253      12.48863499      12.95137400       0.03793683      -0.00481517       0.03565294
Si      14.31369876      12.47910396      15.00978284       0.35246352      -0.26047485       0.35769524
Si      14.94983106      14.06934902      13.33693223      -0.11187246      -0.05458541      -0.24946982
5
Lattice="27.25 0.0 0.0 0.0 27.25 0.0 0.0 0.0 27.25" Properties=species:S:1:pos:R:3:forces:R:3 energy=-43.72124884685898 bias_energy=-43.72047760958816 name=N pbc="T T T"
Si      14.09184253      14.50346340      14.64398679       0.05533599      -0.23503006       0.00095755
Si      12.59360632      15.06333842      12.86324006      -0.20858330       0.59462986      -0.33530738
Si      12.43030814      12.86859845      13.81600041       0.02355243      -0.00416960       0.07650662
Si      14.65398087      12.18931113      14.39551240       0.26546834      -0.22248272       0.47274336
Si      14.35526215      13.50028859      12.40626034      -0.13577346      -0.13294748      -0.21490014
5
Lattice="27.25 0.0 0.0 0.0 27.25 0.0 0.0 0.0 27.25" Properties=species:S:1:pos:R:3:forces:R:3 energy=-43.72133980192518 bias_energy=-43.72053044194696 name=N pbc="T T T"
Si      14.03182079      14.61431790      14.56600682      -0.08181455      -0.09840774      -0.04200625
Si      12.79587439      14.99080670      12.54828497       0.00272148       0.43827045      -0.56731567
Si      12.36434716      12.98018009      13.77854669       0.02913719       0.01638188      -0.02914321
Si      14.45633927      12.25533505      14.69710528       0.09634896      -0.17786950       0.62521141
Si      14.47661838      13.28436026      12.53505625      -0.04639308      -0.17837509       0.01325371
5
Lattice="27.25 0.0 0.0 0.0 27.25 0.0 0.0 0.0 27.25" Properties=species:S:1:pos:R:3:forces:R:3 energy=-43.71741654013975 bias_energy=-43.704452115335926 name=N pbc="T T T"
Si      14.06349276      14.76274360      14.34958914      -0.03927046      -0.16272221      -0.05009518
Si      13.21641318      14.75753545      12.10547712      -0.05825864       0.51027494      -0.48786039
Si      12.26365530      13.21664142      13.69145094       0.07839578      -0.03195973      -0.04253680
Si      14.04370863      12.50770856      15.15297890       0.15864066      -0.18722078       0.60174646
Si      14.53773014      12.88037096      12.82550390      -0.13950734      -0.12837223      -0.02125408
5
Lattice="27.25 0.0 0.0 0.0 27.25 0.0 0.0 0.0 27.25" Properties=species:S:1:pos:R:3:forces:R:3 energy=-43.70724540704103 bias_energy=-43.675688254651405 name=N pbc="T T T"
Si      14.13547064      14.68610866      14.40711710       0.03449383      -0.23684446       0.04008467
Si      13.01956687      14.91462529      12.29213798      -0.29218363       0.61739244      -0.23451990
Si      12.29053072      13.16901576      13.80416654       0.11074396      -0.14333409       0.04766791
Si      14.24237923      12.36544024      14.97720667       0.32106262      -0.29031283       0.35016288
Si      14.43705254      12.98981005      12.64437171      -0.17411679       0.05309894      -0.20339556
5
Lattice="27.25 0.0 0.0 0.0 27.25 0.0 0.0 0.0 27.25" Properties=species:S:1:pos:R:3:forces:R:3 energy=-43.72106225048572 bias_energy=-43.71894460612598 name=N pbc="T T T"
Si      14.97513559      14.06835595      13.50525454       0.01204550      -0.23728214      -0.00565494
Si      13.04690725      15.05187967      12.46172437      -0.20425240       0.60276576      -0.32911083
Si      12.79278539      14.13710783      14.65959806       0.11039663      -0.12514659       0.00340547
Si      14.19536280      12.20267826      14.79501962       0.26989659      -0.24445120       0.46518484
Si      13.11480898      12.66497829      12.70340340      -0.18808633       0.00411417      -0.13382454
5
Lattice="27.25 0.0 0.0 0.0 27.25 0.0 0.0 0.0 27.25" Properties=species:S:1:pos:R:3:forces:R:3 energy=-43.6866379559937 bias_energy=-43.634118660089406 name=N pbc="T T T"
Si      14.97011438      14.06048228      13.64129206      -0.07432032      -0.20270078       0.03852461
Si      13.22652612      14.88906680      12.17616950      -0.13514671       0.50041687      -0.46176727
Si      12.62783949      14.23391162      14.41363787      -0.02053950      -0.13330070      -0.12954529
Si      14.03197311      12.41370681      15.11016446       0.17828955      -0.18834340       0.60176013
Si      13.26854691      12.52783249      12.78373609       0.05171698       0.02392801      -0.04897219
