5
Lattice="27.25 0.0 0.0 0.0 27.25 0.0 0.0 0.0 27.25" Properties=species:S:1:pos:R:3:forces:R:3 energy=-43.721454074553506 bias_energy=0 name=N0 pbc="T T T"
Si      13.73086105      13.26405758      14.99976171       0.13236500      -0.14352710      -0.01531385
Si      13.83489817      11.77876986      13.12636470      -0.18874709       0.60824572      -0.37930741
Si      12.34708628      13.65188417      12.99159489      -0.03416151       0.14317087       0.01054319
Si      13.41794216      15.47107327      14.12571826       0.12797419      -0.48444927       0.03560780
Si      14.79421234      13.95921512      12.88156045      -0.03743058      -0.12344022       0.34847028
5
Lattice="27.25 0.0 0.0 0.0 27.25 0.0 0.0 0.0 27.25" Properties=species:S:1:pos:R:3:forces:R:3 energy=-43.72143064401131 bias_energy=-43.72132864383669 name=N pbc="T T T"
Si      13.69390925      13.07001060      14.93687684       0.09544552      -0.27320034       0.00871053
Si      13.73439696      11.85448245      12.87191225      -0.25165682       0.45765145      -0.54504629
Si      12.35917664      13.81556334      12.99683686      -0.07378459       0.22163478       0.03328260
Si      13.51884040      15.39595845      14.37905961       0.13435344      -0.35362489       0.18400533
Si      14.81867674      13.98898516      12.94031444       0.09564244      -0.05246100       0.31904782
5
Lattice="27.25 0.0 0.0 0.0 27.25 0.0 0.0 0.0 27.25" Properties=species:S:1:pos:R:3:forces:R:3 energy=-43.721433541516134 bias_energy=-43.72126834164867 name=N pbc="T T T"
Si      13.65326026      12.90206840      14.85414464       0.08452636      -0.26797652      -0.02791844
Si      13.64830512      11.96290895      12.64848200      -0.24112787       0.49439672      -0.51970604
Si      12.37605921      13.96214146      13.02471573      -0.05403620       0.21218008       0.04816464
Si      13.60444990      15.28642202      14.60260843       0.12855067      -0.36987161       0.18721229
Si      14.84292552      14.01145917      12.99504920       0.08208704      -0.06872868       0.31224755
5
Lattice="27.25 0.0 0.0 0.0 27.25 0.0 0.0 0.0 27.25" Properties=species:S:1:pos:R:3:forces:R:3 energy=-43.72145604791744 bias_energy=-43.72115633953193 name=N pbc="T T T"
Si      13.61089840      12.75819250      14.75703584       0.07657545      -0.25796183      -0.05974138
Si      13.57600445      12.09419427      12.45487589      -0.23019470       0.52811976      -0.49154390
Si      12.39689949      14.09118915      13.06965234      -0.03921288       0.20091612       0.06194152
Si      13.67687447      15.15445790      14.79703591       0.12279097      -0.38863192       0.18457957
Si      14.86432319      14.02696618      13.04640002       0.07004116      -0.08244212       0.30476419
