5
Lattice="27.25 0.0 0.0 0.0 27.25 0.0 0.0 0.0 27.25" Properties=species:S:1:pos:R:3:forces:R:3 name=N0 pbc="T T T"
Si      12.69297397      12.50889259      14.49100441      -0.09463641       0.33777080      -0.47412090
Si      15.51326018      14.40735352      12.51428562      -0.21143432       0.06719733      -0.17164941
Si      15.02572339      12.71119330      13.88214194       0.46193918      -0.27198044       0.35576884
Si      11.33723179      14.04456458      13.59661348      -0.13402863      -0.04753637       0.24639025
Si      13.55581067      14.45299602      13.64095456      -0.01034318      -0.27590799      -0.04882994
5
Lattice="27.25 0.0 0.0 0.0 27.25 0.0 0.0 0.0 27.25" Properties=species:S:1:pos:R:3:forces:R:3 name=N pbc="T T T"
Si      12.69297397      12.50889259      14.49100441       0.28235603       0.18048258      -0.32556527
Si      15.51326018      14.40735352      12.51428562      -0.08909766      -0.07269098       0.03675165
Si      15.02572339      12.71119330      13.88214194       0.70033144      -0.05258086       0.33533857
Si      11.33723179      14.04456458      13.59661348      -0.14741808       0.22437587       0.09439711
Si      13.55581067      14.45299602      13.64095456       0.02050274      -0.27786804      -0.05325437
