5
Lattice="27.25 0.0 0.0 0.0 27.25 0.0 0.0 0.0 27.25" Properties=species:S:1:pos:R:3:forces:R:3 name=N0 pbc="T T T"
Si      12.95473984      12.56638286      14.76519027       0.16789158       0.02141225      -0.64503053
Si      15.27030592      14.45589331      12.20883479      -0.10194624      -0.05629484       0.07889924
Si      15.17547605      12.99692835      13.89691320      -0.48010198       0.16733534      -0.14694876
Si      11.30378835      13.68400516      13.75433432      -0.03844811       0.13336438       0.28417671
Si      13.42068985      14.42179032      13.49972742       0.05626546      -0.16739303       0.35242361
5
Lattice="27.25 0.0 0.0 0.0 27.25 0.0 0.0 0.0 27.25" Properties=species:S:1:pos:R:3:forces:R:3 name=N pbc="T T T"
Si      12.95473984      12.56638286      14.76519027       0.01605497       0.42767847      -0.65113661
Si      15.27030592      14.45589331      12.20883479      -0.01502885       0.00473045       0.08137599
Si      15.17547605      12.99692835      13.89691320      -0.53847730       0.13087429      -0.06121738
Si      11.30378835      13.68400516      13.75433432      -0.05951183       0.15567676      -0.03473813
Si      13.42068985      14.42179032      13.49972742       0.12093995      -0.17646012       0.02006073
