5
Lattice="27.25 0.0 0.0 0.0 27.25 0.0 0.0 0.0 27.25" Properties=species:S:1:pos:R:3:forces:R:3 energy=-43.72152059602184 bias_energy=0 name=N0 pbc="T T T"
Si      14.27240229      13.28572177      14.85005908       0.12179874      -0.14504668      -0.20675834
Si      14.76414976      15.16839026      13.45044044      -0.38983276      -0.55286606      -0.07714796
Si      14.12235879      13.11761378      12.38963209       0.25739243       0.16644470       0.23428946
Si      12.48716283      12.08095651      13.80006610       0.29281286       0.25145254       0.04379557
Si      12.47892634      14.47231767      13.63480230      -0.28217127       0.28001550       0.00582126
5
Lattice="27.25 0.0 0.0 0.0 27.25 0.0 0.0 0.0 27.25" Properties=species:S:1:pos:R:3:forces:R:3 energy=-43.7213790070297 bias_energy=-43.720793423586834 name=N pbc="T T T"
Si      14.59108242      13.51054853      14.66818911       0.22531812      -0.19722147      -0.16018222
Si      14.17445298      15.44541664      13.32125679      -0.50245757      -0.39226615      -0.12253716
Si      13.98124597      13.28921403      12.28513249       0.30143628       0.11893214       0.14908891
Si      13.07517635      11.80483781      13.93277864       0.31475152       0.26939457       0.05977220
Si      12.30304228      14.07498299      13.91764297      -0.33904835       0.20116091       0.07385826
5
Lattice="27.25 0.0 0.0 0.0 27.25 0.0 0.0 0.0 27.25" Properties=species:S:1:pos:R:3:forces:R:3 energy=-43.72146680852087 bias_energy=-43.72047368930095 name=N pbc="T T T"
Si      14.60296070      13.76580289      14.65282182       0.20574118      -0.06028541      -0.15880702
Si      13.83425103      15.48584578      13.16904832      -0.58964914      -0.36901795      -0.14114327
Si      14.02121249      13.25821477      12.30620925       0.32616354       0.07319035       0.15683565
Si      13.41712352      11.76438361      14.07629729       0.34628336       0.23543293       0.12302457
Si      12.24945226      13.85075294      13.92062333      -0.28853893       0.12068008       0.02009008
5
Lattice="27.25 0.0 0.0 0.0 27.25 0.0 0.0 0.0 27.25" Properties=species:S:1:pos:R:3:forces:R:3 energy=-43.72149625326178 bias_energy=-43.72090066785643 name=N pbc="T T T"
Si      14.58370190      13.99723185      14.61213985       0.17504052      -0.00790241      -0.16209905
Si      13.54260892      15.45129455      13.01491915      -0.59821075      -0.40028683      -0.17837300
Si      14.05537096      13.21377762      12.33057289       0.32374354       0.06657327       0.16846061
Si      13.70986935      11.79860053      14.23183361       0.33693912       0.23669963       0.12919481
Si      12.23344887      13.66409545      13.93553450      -0.23751242       0.10491634       0.04281664
5
Lattice="27.25 0.0 0.0 0.0 27.25 0.0 0.0 0.0 27.25" Properties=species:S:1:pos:R:3:forces:R:3 energy=-43.721499379434384 bias_energy=-43.721234143212676 name=N pbc="T T T"
Si      14.53861110      14.21921194      14.54359667       0.14996264       0.01870681      -0.17379768
Si      13.27303990      15.35559741      12.85430192      -0.58378609      -0.44286298      -0.19468253
Si      14.08577846      13.15756561      12.36054100       0.31425456       0.06826671       0.17506911
Si      13.97990359      11.89448870      14.39247312       0.32187075       0.24574171       0.13063778
Si      12.24766695      13.49813635      13.97408729      -0.20230186       0.11014775       0.06277332
5
Lattice="27.25 0.0 0.0 0.0 27.25 0.0 0.0 0.0 27.25" Properties=species:S:1:pos:R:3:forces:R:3 energy=-43.72143530886797 bias_energy=-43.721306686458426 name=N pbc="T T T"
Si      14.47289787      14.42680128      14.44327463       0.12396390       0.03259487      -0.19204364
Si      13.02978029      15.20529244      12.69652758      -0.55739162      -0.48870187      -0.19800351
Si      14.11375595      13.09042164      12.39855062       0.30190414       0.07228280       0.18110828
Si      14.22430997      12.04488081      14.55142234       0.30529853       0.25802909       0.12857590
Si      12.28425591      13.35760383      14.03522482      -0.17377496       0.12579511       0.08036297
5
Lattice="27.25 0.0 0.0 0.0 27.25 0.0 0.0 0.0 27.25" Properties=species:S:1:pos:R:3:forces:R:3 energy=-43.72143810726787 bias_energy=-43.72123690216653 name=N pbc="T T T"
Si      14.39699413      14.59972747      14.32222725       0.09997238       0.03409487      -0.21384802
Si      12.83054511      15.02063642      12.55915838      -0.52309461      -0.53256683      -0.18904705
Si      14.13910582      13.01622588      12.44345325       0.28853467       0.07657269       0.18715280
Si      14.42327925      12.23110069      14.68853055       0.28743399       0.27127034       0.12281643
Si      12.33507568      13.25730954      14.11163057      -0.15284643       0.15062894       0.09292584
5
Lattice="27.25 0.0 0.0 0.0 27.25 0.0 0.0 0.0 27.25" Properties=species:S:1:pos:R:3:forces:R:3 energy=-43.72150487707428 bias_energy=-43.72111549369709 name=N pbc="T T T"
Si      14.31986645      14.73564637      14.18743602       0.08014224       0.02696068      -0.23596594
Si      12.67345021      14.81762993      12.44818411      -0.48654317      -0.56829683      -0.17223153
Si      14.16305057      12.94036769      12.49599613       0.27575673       0.07973326       0.19297133
Si      14.57903642      12.43439516      14.80004252       0.27061167       0.28346699       0.11520999
Si      12.38959635      13.19696086      14.19334123      -0.13996747       0.17813590       0.10001614
5
Lattice="27.25 0.0 0.0 0.0 27.25 0.0 0.0 0.0 27.25" Properties=species:S:1:pos:R:3:forces:R:3 energy=-43.7214574158298 bias_energy=-43.720939217060845 name=N pbc="T T T"
Si      14.24194756      14.84259345      14.03878984       0.06451885       0.01328640      -0.25612728
Si      12.54924996      14.60171736      12.35884554      -0.45081934      -0.59518749      -0.15115910
Si      14.18710451      12.86246792      12.55902899       0.26419569       0.08185915       0.19951243
Si      14.70294233      12.65064671      14.88890233       0.25534269       0.29391229       0.10585120
Si      12.44375565      13.16757456      14.27943330      -0.13323789       0.20612964       0.10192275
5
Lattice="27.25 0.0 0.0 0.0 27.25 0.0 0.0 0.0 27.25" Properties=species:S:1:pos:R:3:forces:R:3 energy=-43.72142521395307 bias_energy=-43.72087871387123 name=N pbc="T T T"
Si      14.16541166      14.92073826      13.87789562       0.05296258      -0.00615694      -0.27343649
Si      12.45121214      14.37449517      12.29229763      -0.41644590      -0.61496930      -0.12583549
Si      14.21224086      12.78392582      12.63471050       0.25425309       0.08392393       0.20688225
Si      14.79957483      12.87717716      14.95581908       0.24087141       0.30251104       0.09475377
Si      12.49656051      13.16866359      14.36427718      -0.13164118       0.23469127       0.09763595
5
Lattice="27.25 0.0 0.0 0.0 27.25 0.0 0.0 0.0 27.25" Properties=species:S:1:pos:R:3:forces:R:3 energy=-43.72144366964648 bias_energy=-43.72104936955264 name=N pbc="T T T"
Si      14.09059374      14.97075208      13.70252619       0.04404376      -0.03020134      -0.28826037
Si      12.37593927      14.13478262      12.24812528      -0.38296251      -0.62850654      -0.09814449
Si      14.24017731      12.70586283      12.72633127       0.24413551       0.08597600       0.21636156
Si      14.87431954      13.11551234      15.00080084       0.22735577       0.31066219       0.08189549
Si      12.54397014      13.19809013      14.44721641      -0.13257253       0.26206968       0.08814781
5
Lattice="27.25 0.0 0.0 0.0 27.25 0.0 0.0 0.0 27.25" Properties=species:S:1:pos:R:3:forces:R:3 energy=-43.72147427656927 bias_energy=-43.721158437322416 name=N pbc="T T T"
Si      14.01997556      14.99089494      13.51702124       0.03817875      -0.05880365      -0.29941789
Si      12.32321816      13.88907849      12.22860964      -0.35037455      -0.63643763      -0.06750141
Si      14.27053084      12.63001922      12.83486187       0.23480494       0.08969170       0.22735640
Si      14.92648864      13.36044934      15.02089290       0.21435456       0.31665487       0.06689850
Si      12.58478680      13.25455802      14.52361435      -0.13696370       0.28889472       0.07266439
5
Lattice="27.25 0.0 0.0 0.0 27.25 0.0 0.0 0.0 27.25" Properties=species:S:1:pos:R:3:forces:R:3 energy=-43.72145428879978 bias_energy=-43.720707529179066 name=N pbc="T T T"
Si      13.96034321      14.98041382      13.33924496       0.03544900      -0.09129673      -0.30668582
Si      12.29627962      13.66403706      12.23278273      -0.31992090      -0.63820919      -0.03521257
Si      14.29799160      12.56368740      12.95209295       0.22592636       0.09542162       0.23997105
Si      14.95581220      13.58947653      15.01521009       0.20210654       0.32117444       0.05037650
Si      12.61457336      13.32738519      14.58566927      -0.14356100       0.31290986       0.05155084
5
Lattice="27.25 0.0 0.0 0.0 27.25 0.0 0.0 0.0 27.25" Properties=species:S:1:pos:R:3:forces:R:3 energy=-43.72152427415291 bias_energy=-43.7210178437875 name=N pbc="T T T"
Si      13.91149046      14.94160272      13.16056570       0.03517875      -0.12480852      -0.30947223
Si      12.27991292      13.43795843      12.25948322      -0.29441654      -0.63438743      -0.00459748
Si      14.32760155      12.50794823      13.08622341       0.21812079       0.10416950       0.25301399
Si      14.97113157      13.81487939      14.98891402       0.19161765       0.32350043       0.03405185
Si      12.63486350      13.42261124      14.62981365      -0.15050065       0.33152602       0.02700387
