5
Lattice="27.25 0.0 0.0 0.0 27.25 0.0 0.0 0.0 27.25" Properties=species:S:1:pos:R:3:forces:R:3 energy=-43.72151032732771 bias_energy=0 name=N0 pbc="T T T"
Si      12.57482576      13.41451807      12.68634983      -0.38372131      -0.06524163       0.04686139
Si      13.20539276      11.94570478      14.47070233       0.59720072      -0.01678405      -0.25643586
Si      14.04366290      15.30421773      12.77842472       0.38679053      -0.15882853      -0.05015322
Si      14.94093052      13.15458474      13.34113427      -0.29850046       0.15539424       0.10842066
Si      13.36018806      14.30597467      14.84838885      -0.30176948       0.08545998       0.15130704
5
Lattice="27.25 0.0 0.0 0.0 27.25 0.0 0.0 0.0 27.25" Properties=species:S:1:pos:R:3:forces:R:3 energy=-43.72121614555988 bias_energy=-43.72068762991187 name=N pbc="T T T"
Si      12.69523279      13.09950141      12.68008653      -0.38012982       0.01134170       0.13436533
Si      13.97358444      11.84662811      14.27972683       0.62550113      -0.10082445      -0.22679941
Si      13.28416394      15.40792757      12.97681592       0.34248818      -0.15844949      -0.05019117
Si      14.99768370      13.75959851      13.26878661      -0.19258478       0.17543632       0.06983607
Si      13.17433514      14.01134440      14.91958410      -0.39527471       0.07249592       0.07278919
5
Lattice="27.25 0.0 0.0 0.0 27.25 0.0 0.0 0.0 27.25" Properties=species:S:1:pos:R:3:forces:R:3 energy=-43.721174955674684 bias_energy=-43.71950922037604 name=N pbc="T T T"
Si      12.77062455      12.93342329      12.71354457      -0.38896010      -0.06254168       0.16955912
Si      14.53338602      11.97511397      14.03496582       0.63275791       0.02023130      -0.28217557
Si      12.72563541      15.28051009      13.21973190       0.32465270      -0.10114101      -0.07240384
Si      14.85108308      14.18170909      13.16439346      -0.22410325       0.16804724       0.09388088
Si      13.24427095      13.75424356      14.99236425      -0.34434727      -0.02459585       0.09113942
5
Lattice="27.25 0.0 0.0 0.0 27.25 0.0 0.0 0.0 27.25" Properties=species:S:1:pos:R:3:forces:R:3 energy=-43.72136550577673 bias_energy=-43.7204074431846 name=N pbc="T T T"
Si      12.84641426      12.80737898      12.75166861      -0.36543728      -0.12635508       0.19556444
Si      14.95399005      12.23442800      13.74965797       0.62007671       0.12134837      -0.33124270
Si      12.30156650      15.02023193      13.50324758       0.29583568      -0.07187699      -0.07420722
Si      14.60379714      14.50954551      13.08734283      -0.25073218       0.15548691       0.10789620
Si      13.41923206      13.55341558      15.03308301      -0.29974293      -0.07860320       0.10198928
5
Lattice="27.25 0.0 0.0 0.0 27.25 0.0 0.0 0.0 27.25" Properties=species:S:1:pos:R:3:forces:R:3 energy=-43.721462437857085 bias_energy=-43.72112143463736 name=N pbc="T T T"
Si      12.92918864      12.70937643      12.78187178      -0.32120269      -0.17924086       0.21309233
Si      15.22632696      12.56608795      13.45510179       0.59088702       0.22307005      -0.38005396
Si      12.02464660      14.68269757      13.79836989       0.25982879      -0.07390319      -0.05391176
Si      14.30308711      14.74103502      13.05350859      -0.28441678       0.14559422       0.11952174
Si      13.64175069      13.42580303      15.03614795      -0.24509634      -0.11552021       0.10135165
5
Lattice="27.25 0.0 0.0 0.0 27.25 0.0 0.0 0.0 27.25" Properties=species:S:1:pos:R:3:forces:R:3 energy=-43.72143235659756 bias_energy=-43.7211969393242 name=N pbc="T T T"
Si      13.00002703      12.64213973      12.80373163      -0.25425121      -0.20923277       0.20858159
Si      15.35176171      12.87214129      13.21427352       0.54177452       0.32613170      -0.42681182
Si      11.89810713      14.37755236      14.03443835       0.21756561      -0.13070354       0.00741293
Si      14.03578379      14.86783515      13.06222272      -0.33826594       0.14121010       0.12662768
Si      13.83932036      13.36533148      15.01033377      -0.16682298      -0.12740549       0.08418962
5
Lattice="27.25 0.0 0.0 0.0 27.25 0.0 0.0 0.0 27.25" Properties=species:S:1:pos:R:3:forces:R:3 energy=-43.72151540057157 bias_energy=-43.721428421244084 name=N pbc="T T T"
Si      13.06654490      12.59636787      12.81152684      -0.17835157      -0.19008787       0.15972599
Si      15.38861226      13.14184719      13.02273767       0.46087566       0.40466818      -0.44692169
Si      11.86091653      14.10628804      14.22796994       0.18894589      -0.25892155       0.11433069
Si      13.80032570      14.93719944      13.09368261      -0.40632294       0.13642504       0.12800145
Si      14.00860062      13.34329746      14.96908294      -0.06514704      -0.09208381       0.04486356
