5
Lattice="27.25 0.0 0.0 0.0 27.25 0.0 0.0 0.0 27.25" Properties=species:S:1:pos:R:3:forces:R:3 energy=-43.72152705577753 bias_energy=0 name=N0 pbc="T T T"
Si      12.80020537      12.72264106      12.89185133       0.04223024      -0.23611777       0.23578322
Si      15.10183055      12.39789897      13.47398014      -0.39247256       0.39427855       0.15372300
Si      12.14948365      14.85330551      13.77254519       0.49315125      -0.40092512       0.04006685
Si      14.38210864      14.61919492      12.94026517      -0.09669839       0.07976585      -0.13888470
Si      13.69137179      13.53195954      15.04635817      -0.04621054       0.16299848      -0.29068837
5
Lattice="27.25 0.0 0.0 0.0 27.25 0.0 0.0 0.0 27.25" Properties=species:S:1:pos:R:3:forces:R:3 energy=-43.721500055247326 bias_energy=-43.721414275144404 name=N pbc="T T T"
Si      12.82894155      12.54708875      13.13678401      -0.00247126      -0.40448881       0.32066597
Si      15.18891878      12.50357163      13.54551642      -0.20205334       0.39759675       0.18918289
Si      12.05990536      14.74523286      13.70520603       0.31358055      -0.34451231      -0.01517260
Si      14.23199338      14.53528519      12.71066350      -0.17019389       0.05226092      -0.37835592
Si      13.81524093      13.79382158      15.02683003       0.06113794       0.29914345      -0.11632034
5
Lattice="27.25 0.0 0.0 0.0 27.25 0.0 0.0 0.0 27.25" Properties=species:S:1:pos:R:3:forces:R:3 energy=-43.721363908481706 bias_energy=-43.72115638923317 name=N pbc="T T T"
Si      12.90368819      12.42146652      13.36447387       0.05715506      -0.36022759       0.33524317
Si      15.28019546      12.63863882      13.60462318      -0.20490033       0.40971541       0.17875875
Si      11.97172625      14.61469482      13.64845890       0.28181081      -0.38963871      -0.01983761
Si      14.09059514      14.42524471      12.54024211      -0.18197030       0.00820078      -0.32887855
Si      13.87879496      14.02495514      14.96720194       0.04790475       0.33195011      -0.16528575
5
Lattice="27.25 0.0 0.0 0.0 27.25 0.0 0.0 0.0 27.25" Properties=species:S:1:pos:R:3:forces:R:3 energy=-43.72135673963104 bias_energy=-43.72108382716382 name=N pbc="T T T"
Si      13.01423897      12.33688956      13.57351793       0.10447848      -0.31470567       0.33128954
Si      15.36483405      12.79682844      13.65469883      -0.21142088       0.42225123       0.17307202
Si      11.88413279      14.45115361      13.59933602       0.26530778      -0.43015259      -0.01488546
Si      13.96749542      14.30180530      12.41637142      -0.17540607      -0.02067628      -0.28065410
Si      13.89429878      14.23832310      14.88107580       0.01704069       0.34328331      -0.20882200
5
Lattice="27.25 0.0 0.0 0.0 27.25 0.0 0.0 0.0 27.25" Properties=species:S:1:pos:R:3:forces:R:3 energy=-43.72150911488389 bias_energy=-43.72138622315716 name=N pbc="T T T"
Si      13.15856720      12.28534327      13.77635163       0.13799096      -0.27073602       0.31582623
Si      15.44445038      12.99966257      13.69722049      -0.22112442       0.43367249       0.17019588
Si      11.80562240      14.25118108      13.55304631       0.26264692      -0.46556133      -0.00501250
Si      13.86063843      14.15622324      12.32217904      -0.15659886      -0.03531320      -0.23595674
Si      13.85572159      14.43258984      14.77620253      -0.02291461       0.33793807      -0.24505288
5
Lattice="27.25 0.0 0.0 0.0 27.25 0.0 0.0 0.0 27.25" Properties=species:S:1:pos:R:3:forces:R:3 energy=-43.72152041779555 bias_energy=-43.72141179546486 name=N pbc="T T T"
Si      13.32113299      12.27027923      13.95292953       0.16093180      -0.22611755       0.29219793
Si      15.50640564      13.23065111      13.73531683      -0.23660088       0.44525816       0.16875258
Si      11.74383411      14.02138251      13.51455306       0.27256252      -0.49576009       0.00674758
Si      13.78685625      14.00978714      12.26105709      -0.12906651      -0.03912711      -0.19570608
Si      13.76677102      14.59290001      14.66114349      -0.06782692       0.31574658      -0.27199201
5
Lattice="27.25 0.0 0.0 0.0 27.25 0.0 0.0 0.0 27.25" Properties=species:S:1:pos:R:3:forces:R:3 energy=-43.72142487343979 bias_energy=-43.721261514853026 name=N pbc="T T T"
Si      13.48352000      12.28601078      14.09724599       0.17170361      -0.18549108       0.26665246
Si      15.54093070      13.47398502      13.76843698      -0.25464977       0.45393580       0.16861841
Si      11.70885636      13.77868304      13.48192415       0.29137934      -0.51718062       0.01728891
Si      13.75065774      13.87880622      12.22665068      -0.09940844      -0.03363387      -0.16320514
Si      13.64103520      14.70751494      14.55074221      -0.10902474       0.28236978      -0.28935464
5
Lattice="27.25 0.0 0.0 0.0 27.25 0.0 0.0 0.0 27.25" Properties=species:S:1:pos:R:3:forces:R:3 energy=-43.72149534741696 bias_energy=-43.721223876957936 name=N pbc="T T T"
Si      13.63460560      12.32569320      14.21174880       0.17155948      -0.15138659       0.24319341
Si      15.54126132      13.71786973      13.79677997      -0.27539888       0.45812092       0.16928702
Si      11.70764508      13.53514606      13.45138794       0.31685226      -0.52915234       0.02524998
Si      13.74605880      13.76801651      12.21182169      -0.07257351      -0.02088732      -0.13928492
Si      13.49542921      14.77827449      14.45326160      -0.14043935       0.24330532      -0.29844549
5
Lattice="27.25 0.0 0.0 0.0 27.25 0.0 0.0 0.0 27.25" Properties=species:S:1:pos:R:3:forces:R:3 energy=-43.72149968486259 bias_energy=-43.721026535579256 name=N pbc="T T T"
Si      13.76823011      12.37952727      14.30330577       0.16501826      -0.12298957       0.22289597
Si      15.51225348      13.95143566      13.82407835      -0.29860000       0.45814084       0.16961567
Si      11.73652887      13.30084906      13.42398418       0.34601635      -0.53253651       0.03081137
Si      13.76536137      13.68235628      12.20772369      -0.05064791      -0.00539442      -0.12118043
Si      13.34262618      14.81083174      14.36590802      -0.16178670       0.20277966      -0.30214257
5
Lattice="27.25 0.0 0.0 0.0 27.25 0.0 0.0 0.0 27.25" Properties=species:S:1:pos:R:3:forces:R:3 energy=-43.72147463994452 bias_energy=-43.7210506088079 name=N pbc="T T T"
Si      13.88997306      12.44730934      14.38224791       0.15416687      -0.10041053       0.20707428
Si      15.45335460      14.18240889      13.85139724      -0.32234381       0.45341583       0.16985487
Si      11.79520288      13.06884964      13.39686475       0.37600346      -0.52935698       0.03423547
Si      13.80335310      13.61519329      12.21097480      -0.03437217       0.01177965      -0.10775544
Si      13.18311636      14.81123883      14.28351530      -0.17345434       0.16457204      -0.30340918
5
Lattice="27.25 0.0 0.0 0.0 27.25 0.0 0.0 0.0 27.25" Properties=species:S:1:pos:R:3:forces:R:3 energy=-43.72147278358662 bias_energy=-43.72121501658345 name=N pbc="T T T"
Si      14.00044069      12.52863935      14.45365903       0.13982747      -0.08133438       0.19378313
Si      15.36234033      14.41314498      13.87978952      -0.34668782       0.44422163       0.17031031
Si      11.88645566      12.83717065      13.36913285       0.40734214      -0.52079012       0.03685956
Si      13.85754338      13.56588153      12.22021682      -0.02287861       0.03010071      -0.09666373
Si      13.01821994      14.78016349      14.20220179      -0.17760319       0.12780215      -0.30428927
5
Lattice="27.25 0.0 0.0 0.0 27.25 0.0 0.0 0.0 27.25" Properties=species:S:1:pos:R:3:forces:R:3 energy=-43.72148044527667 bias_energy=-43.721222837075715 name=N pbc="T T T"
Si      14.09442372      12.61891661      14.51675923       0.12241597      -0.06545693       0.18280490
Si      15.24228337      14.63058545      13.90832457      -0.37130630       0.43097885       0.17081225
Si      12.00654158      12.61941898      13.34117026       0.43946895      -0.50722103       0.03886262
Si      13.92308499      13.53677057      12.23459281      -0.01565223       0.04909449      -0.08725049
Si      12.85866635      14.71930839      14.12415313      -0.17492640       0.09260463      -0.30522928
5
Lattice="27.25 0.0 0.0 0.0 27.25 0.0 0.0 0.0 27.25" Properties=species:S:1:pos:R:3:forces:R:3 energy=-43.721491722043496 bias_energy=-43.72126712578712 name=N pbc="T T T"
Si      14.17080041      12.71520602      14.57477532       0.10278235      -0.05317943       0.17367056
Si      15.09264322      14.83218166      13.93699417      -0.39504012       0.41439038       0.17139867
Si      12.15671728      12.41806441      13.31281055       0.47082602      -0.48948810       0.04084342
Si      13.99610254      13.52722972      12.25296874      -0.01280655       0.06745864      -0.07895203
Si      12.70873655      14.63231819      14.04745122      -0.16576170       0.06081851      -0.30696063
5
Lattice="27.25 0.0 0.0 0.0 27.25 0.0 0.0 0.0 27.25" Properties=species:S:1:pos:R:3:forces:R:3 energy=-43.72149047041078 bias_energy=-43.721208060864214 name=N pbc="T T T"
Si      14.22815609      12.81341481      14.62781169       0.08152117      -0.04490177       0.16626311
Si      14.91967767      15.00969932      13.96471276      -0.41723944       0.39430819       0.17203206
Si      12.32942784      12.24088569      13.28475762       0.50114525      -0.46788633       0.04316749
Si      14.07269034      13.53670158      12.27531317      -0.01413385       0.08540931      -0.07163118
Si      12.57504806      14.52429860      13.97240476      -0.15129314       0.03307061      -0.30983147
5
Lattice="27.25 0.0 0.0 0.0 27.25 0.0 0.0 0.0 27.25" Properties=species:S:1:pos:R:3:forces:R:3 energy=-43.72141935035377 bias_energy=-43.72069261198822 name=N pbc="T T T"
Si      14.26705371      12.90735120      14.67611661       0.05959188      -0.04081706       0.16035395
Si      14.73883502      15.15352079      13.98951352      -0.43694823       0.37232707       0.17261702
Si      12.50884446      12.09895852      13.25761731       0.52896360      -0.44354058       0.04581931
Si      14.14688114      13.56231383      12.30055018      -0.01874604       0.10178441      -0.06513375
Si      12.46338566      14.40285567      13.90120237      -0.13286122       0.01024616      -0.31365653
5
Lattice="27.25 0.0 0.0 0.0 27.25 0.0 0.0 0.0 27.25" Properties=species:S:1:pos:R:3:forces:R:3 energy=-43.72141012947504 bias_energy=-43.720958988631864 name=N pbc="T T T"
Si      14.28836928      13.00252273      14.72360669       0.03821493      -0.04076017       0.15483463
Si      14.53201060      15.27847210      14.01520695      -0.45377410       0.34912639       0.17350183
Si      12.71557816      11.97391686      13.23163959       0.55318286      -0.41750219       0.05026082
Si      14.22159278      13.60502756      12.33089772      -0.02635467       0.11636038      -0.05925893
Si      12.36744919      14.26506075      13.82364905      -0.11126902      -0.00722442      -0.31933836
5
Lattice="27.25 0.0 0.0 0.0 27.25 0.0 0.0 0.0 27.25" Properties=species:S:1:pos:R:3:forces:R:3 energy=-43.72149671197108 bias_energy=-43.72125823543619 name=N pbc="T T T"
Si      14.29068823      13.09883507      14.77060269       0.01579464      -0.04463732       0.14979261
Si      14.29589332      15.38108164      14.04090719      -0.46790026       0.32387949       0.17478621
Si      12.95176538      11.87023521      13.20648652       0.57560921      -0.38884120       0.05515233
Si      14.29704725      13.66664130      12.36942356      -0.03735704       0.12974934      -0.05344595
Si      12.28960582      14.10820677      13.73758003      -0.08614655      -0.02015031      -0.32628520
5
Lattice="27.25 0.0 0.0 0.0 27.25 0.0 0.0 0.0 27.25" Properties=species:S:1:pos:R:3:forces:R:3 energy=-43.72135243408482 bias_energy=-43.72114711403726 name=N pbc="T T T"
Si      14.27320297      13.19171005      14.81825527      -0.00821954      -0.05315318       0.14421727
Si      14.04077192      15.45182726      14.06505115      -0.47911670       0.29635086       0.17672366
Si      13.20706700      11.79906480      13.18264936       0.59596181      -0.35727709       0.06126263
Si      14.36949268      13.74796009      12.41668205      -0.05191882       0.14162345      -0.04729064
Si      12.23446543      13.93443780      13.64236218      -0.05670675      -0.02754404      -0.33491292
5
Lattice="27.25 0.0 0.0 0.0 27.25 0.0 0.0 0.0 27.25" Properties=species:S:1:pos:R:3:forces:R:3 energy=-43.72145783873146 bias_energy=-43.72130853445392 name=N pbc="T T T"
Si      14.23192856      13.27243186      14.86566736      -0.03231103      -0.06710334       0.13763712
Si      13.76561579      15.48862735      14.08596319      -0.48680643       0.26709143       0.17968785
Si      13.48229109      11.76210953      13.16108957       0.61236976      -0.32298222       0.07008761
Si      14.43623406      13.84909094      12.47555245      -0.07013677       0.15153166      -0.04138653
Si      12.20893050      13.75274032      13.53672743      -0.02311552      -0.02853754      -0.34602604
5
Lattice="27.25 0.0 0.0 0.0 27.25 0.0 0.0 0.0 27.25" Properties=species:S:1:pos:R:3:forces:R:3 energy=-43.72140230957663 bias_energy=-43.721273056315745 name=N pbc="T T T"
Si      14.16612898      13.33749940      14.91270945      -0.05641339      -0.08898205       0.12976417
Si      13.47650364      15.48332388      14.10322541      -0.48871728       0.23835539       0.18361580
Si      13.77141806      11.76743701      13.14344359       0.62382576      -0.28819245       0.08127227
Si      14.49356664      13.97200021      12.55040940      -0.09228353       0.15763867      -0.03594229
Si      12.21738268      13.56473950      13.41521215       0.01358844      -0.01881956      -0.35870996
5
Lattice="27.25 0.0 0.0 0.0 27.25 0.0 0.0 0.0 27.25" Properties=species:S:1:pos:R:3:forces:R:3 energy=-43.72148224982845 bias_energy=-43.72134094375971 name=N pbc="T T T"
Si      14.07441382      13.37448906      14.95499428      -0.07870727      -0.11859863       0.11906470
Si      13.18250343      15.43360652      14.11425619      -0.48435395       0.21088056       0.18962217
Si      14.06586932      11.81694080      13.13163160       0.62783816      -0.25381507       0.09633797
Si      14.53786649      14.11423428      12.64653298      -0.11792258       0.15914011      -0.03138483
Si      12.26434695      13.38572934      13.27758495       0.05314565       0.00239303      -0.37364000
