5
Lattice="27.25 0.0 0.0 0.0 27.25 0.0 0.0 0.0 27.25" Properties=species:S:1:pos:R:3:forces:R:3 energy=-43.721522204276425 bias_energy=0 name=N0 pbc="T T T"
Si      12.22633807      13.84594717      13.78977173       0.08574733       0.44882479       0.15142270
Si      14.48037939      14.70475933      13.25488150       0.30341875      -0.04097523       0.01992579
Si      13.90819203      14.03778375      15.48470325      -0.38317970      -0.22899504      -0.52847718
Si      13.33991334      13.21286515      11.76442556       0.08387121       0.05851872       0.34728404
Si      14.17017718      12.32364460      13.83121796      -0.08985759      -0.23737323       0.00984464
5
Lattice="27.25 0.0 0.0 0.0 27.25 0.0 0.0 0.0 27.25" Properties=species:S:1:pos:R:3:forces:R:3 energy=-43.72150228069554 bias_energy=-43.72138034648749 name=N pbc="T T T"
Si      12.28856666      14.11385650      13.69403248       0.06364401       0.56752615       0.01692248
Si      14.69576426      14.51894896      13.33112907       0.42838192      -0.14307970       0.03898953
Si      13.85027488      13.97360075      15.50690323      -0.35444346      -0.23920980      -0.32413015
Si      13.40209847      13.27659076      11.74401840       0.06544153       0.06071210       0.26547433
Si      13.88829571      12.24200303      13.84891682      -0.20302400      -0.24594875       0.00274380
5
Lattice="27.25 0.0 0.0 0.0 27.25 0.0 0.0 0.0 27.25" Properties=species:S:1:pos:R:3:forces:R:3 energy=-43.72150132910459 bias_energy=-43.7212449296079 name=N pbc="T T T"
Si      12.39760027      14.34924300      13.61383900       0.12955205       0.55795088       0.02254379
Si      14.86097165      14.31088275      13.43994380       0.37954740      -0.16409085       0.06832904
Si      13.76332651      13.88923606      15.52903818      -0.38315414      -0.26077149      -0.33472673
Si      13.48847122      13.36265545      11.72219813       0.07613526       0.07384754       0.27068115
Si      13.61463035      12.21298274      13.81998090      -0.20208057      -0.20693609      -0.02682725
5
Lattice="27.25 0.0 0.0 0.0 27.25 0.0 0.0 0.0 27.25" Properties=species:S:1:pos:R:3:forces:R:3 energy=-43.72149644865541 bias_energy=-43.721014700715315 name=N pbc="T T T"
Si      12.53787067      14.54497043      13.55882304       0.18335145       0.53375819       0.04125384
Si      14.96784315      14.09942616      13.57341774       0.32771582      -0.16632521       0.09011849
Si      13.64354859      13.78358031      15.54519853      -0.41735827      -0.28049165      -0.35129302
Si      13.60904231      13.46894393      11.70628218       0.08993099       0.08699618       0.27805680
Si      13.36669528      12.22807918      13.74127851      -0.18363999      -0.17393751      -0.05813612
5
Lattice="27.25 0.0 0.0 0.0 27.25 0.0 0.0 0.0 27.25" Properties=species:S:1:pos:R:3:forces:R:3 energy=-43.72141350268423 bias_energy=-43.72069798186902 name=N pbc="T T T"
Si      12.68765178      14.69583928      13.53649737       0.21902631       0.49793671       0.07143141
Si      15.01998995      13.89943415      13.72084725       0.27929021      -0.15141358       0.10388349
Si      13.48778021      13.66084459      15.54656025      -0.45162568      -0.29551290      -0.37549749
Si      13.76562976      13.59329704      11.70601990       0.10498133       0.09825794       0.28579741
Si      13.16394829      12.27558495      13.61507523      -0.15167217      -0.14926817      -0.08561482
5
Lattice="27.25 0.0 0.0 0.0 27.25 0.0 0.0 0.0 27.25" Properties=species:S:1:pos:R:3:forces:R:3 energy=-43.72139828361006 bias_energy=-43.72085999250445 name=N pbc="T T T"
Si      12.83177945      14.80766276      13.54893389       0.23386213       0.45575688       0.10666970
Si      15.02509125      13.71600021      13.87665186       0.23837407      -0.12690108       0.11017496
Si      13.29415060      13.52177068      15.51998766      -0.47899536      -0.30335541      -0.40757998
Si      13.95922585      13.73222831      11.73282664       0.11889609       0.10635477       0.29533086
Si      13.01475284      12.34733804      13.44659996      -0.11213693      -0.13185516      -0.10459554
5
Lattice="27.25 0.0 0.0 0.0 27.25 0.0 0.0 0.0 27.25" Properties=species:S:1:pos:R:3:forces:R:3 energy=-43.721391883203864 bias_energy=-43.720669739601725 name=N pbc="T T T"
Si      12.94581979      14.87666414      13.58915331       0.23058387       0.41233696       0.14153145
Si      14.99226953      13.56308761      14.02002176       0.20542549      -0.10027175       0.11159351
Si      13.08548142      13.38410040      15.45837442      -0.49497271      -0.30280369      -0.44720664
Si      14.16677912      13.87019228      11.79534213       0.12967226       0.11074665       0.30689066
Si      12.93465014      12.43095557      13.26210839      -0.07070890      -0.12000817      -0.11280897
5
Lattice="27.25 0.0 0.0 0.0 27.25 0.0 0.0 0.0 27.25" Properties=species:S:1:pos:R:3:forces:R:3 energy=-43.721463386232074 bias_energy=-43.72102602750925 name=N pbc="T T T"
Si      13.03159022      14.92010121      13.64711824       0.21674933       0.37341903       0.16953462
Si      14.93289244      13.42874526      14.15658622       0.17950548      -0.08110066       0.11095095
Si      12.86755419      13.24734544      15.35439365      -0.49817059      -0.29523744      -0.48913552
Si      14.38449142      14.00577249      11.89812652       0.13672438       0.11247081       0.31974296
Si      12.90847173      12.52303561      13.06877538      -0.03480859      -0.10955174      -0.11109301
5
Lattice="27.25 0.0 0.0 0.0 27.25 0.0 0.0 0.0 27.25" Properties=species:S:1:pos:R:3:forces:R:3 energy=-43.721480187714974 bias_energy=-43.72093547299493 name=N pbc="T T T"
Si      13.08531602      14.94116300      13.71140913       0.19611293       0.34011271       0.19099583
Si      14.85593100      13.31296820      14.27209366       0.15840968      -0.06693601       0.10795391
Si      12.66173188      13.12632367      15.21526324      -0.48942735      -0.28084689      -0.53354572
Si      14.58937970      14.12616488      12.03731805       0.13886077       0.11106474       0.33550546
Si      12.93264140      12.61838025      12.88891591      -0.00395604      -0.10339455      -0.10090948
5
Lattice="27.25 0.0 0.0 0.0 27.25 0.0 0.0 0.0 27.25" Properties=species:S:1:pos:R:3:forces:R:3 energy=-43.72149052875009 bias_energy=-43.720909279117606 name=N pbc="T T T"
Si      13.11581637      14.94657758      13.77504864       0.17420171       0.31294121       0.20510160
Si      14.76438230      13.20871543      14.37245763       0.14068849      -0.05959681       0.10341396
Si      12.47316006      13.02092573      15.04448701      -0.47307888      -0.26260188      -0.57507932
Si      14.77786286      14.23209047      12.20783506       0.13742464       0.10850522       0.35199120
Si      12.99377840      12.71669079      12.72517166       0.02076404      -0.09924775      -0.08542743
5
Lattice="27.25 0.0 0.0 0.0 27.25 0.0 0.0 0.0 27.25" Properties=species:S:1:pos:R:3:forces:R:3 energy=-43.721419856238285 bias_energy=-43.720820957854386 name=N pbc="T T T"
Si      13.12614103      14.94193300      13.83472699       0.15225865       0.28944498       0.21259166
Si      14.66104063      13.11171372      14.45620091       0.12371071      -0.05600616       0.09620836
Si      12.30579580      12.93270299      14.84617169      -0.45020856      -0.24197695      -0.61405642
Si      14.94538881      14.32024536      12.40653527       0.13405424       0.10485028       0.37102580
Si      13.08663373      12.81840493      12.58136514       0.04018496      -0.09631216      -0.06576939
5
Lattice="27.25 0.0 0.0 0.0 27.25 0.0 0.0 0.0 27.25" Properties=species:S:1:pos:R:3:forces:R:3 energy=-43.72151970801611 bias_energy=-43.721095760187964 name=N pbc="T T T"
Si      13.12123970      14.93130619      13.88848543       0.13112897       0.26928979       0.21363303
Si      14.54887890      13.01984249      14.52506222       0.10752001      -0.05480644       0.08575492
Si      12.16105369      12.86138269      14.61596664      -0.42184044      -0.21921537      -0.64971157
Si      15.09018483      14.39021482      12.63684153       0.12795527       0.09997834       0.39281593
Si      13.20364289      12.92225381      12.45864419       0.05523618      -0.09524632      -0.04249231
5
Lattice="27.25 0.0 0.0 0.0 27.25 0.0 0.0 0.0 27.25" Properties=species:S:1:pos:R:3:forces:R:3 energy=-43.72144251613267 bias_energy=-43.72124932720536 name=N pbc="T T T"
Si      13.10136527      14.91370137      13.93553033       0.11114818       0.25356326       0.20955300
Si      14.41684376      12.92533972      14.57990915       0.09385602      -0.05524966       0.07233719
Si      12.03815902      12.80802844      14.34776851      -0.38934984      -0.19340301      -0.68019560
Si      15.21337707      14.44276837      12.90559199       0.11828160       0.09431347       0.41624949
Si      13.35525489      13.03516209      12.35620003       0.06606403      -0.09922407      -0.01794408
5
Lattice="27.25 0.0 0.0 0.0 27.25 0.0 0.0 0.0 27.25" Properties=species:S:1:pos:R:3:forces:R:3 energy=-43.72142888067387 bias_energy=-43.721302228528806 name=N pbc="T T T"
Si      13.07056334      14.89273467      13.96947224       0.09267983       0.24084935       0.19866451
Si      14.27301524      12.83435943      14.61662232       0.08077338      -0.05606733       0.05363927
Si      11.94956162      12.77821038      14.05051716      -0.35064011      -0.16450774      -0.70681976
Si      15.30232310      14.47117389      13.20299119       0.10408430       0.08653247       0.44338119
Si      13.52953670      13.14852164      12.28539708       0.07310260      -0.10680675       0.01113479
5
Lattice="27.25 0.0 0.0 0.0 27.25 0.0 0.0 0.0 27.25" Properties=species:S:1:pos:R:3:forces:R:3 energy=-43.72150191030721 bias_energy=-43.721396694091496 name=N pbc="T T T"
Si      13.03328476      14.87095819      13.98653794       0.07815601       0.23308174       0.18024273
Si      14.11825587      12.74815279      14.63419729       0.07115749      -0.05689186       0.02908568
Si      11.90123671      12.77568303      13.73349182      -0.30985387      -0.13350792      -0.72453018
Si      15.35043770      14.47311695      13.51973288       0.08531029       0.07768807       0.47321055
Si      13.72178495      13.25708904      12.25104006       0.07523008      -0.12037003       0.04199122
5
Lattice="27.25 0.0 0.0 0.0 27.25 0.0 0.0 0.0 27.25" Properties=species:S:1:pos:R:3:forces:R:3 energy=-43.721458087871206 bias_energy=-43.72137462210668 name=N pbc="T T T"
Si      12.99293272      14.85261149      13.98364179       0.07012051       0.23257586       0.15305489
Si      13.94709247      12.66771668      14.63012206       0.06800166      -0.05659783      -0.00166051
Si      11.90011535      12.80331062      13.39919162      -0.27023388      -0.10203659      -0.72969957
Si      15.35217965      14.44408329      13.85289996       0.06147302       0.06769951       0.50502713
Si      13.93267981      13.35727791      12.25914458       0.07063869      -0.14164094       0.07327806
5
Lattice="27.25 0.0 0.0 0.0 27.25 0.0 0.0 0.0 27.25" Properties=species:S:1:pos:R:3:forces:R:3 energy=-43.721470788072914 bias_energy=-43.721337897983325 name=N pbc="T T T"
Si      12.96082108      14.84242405      13.95623110       0.07435029       0.24207178       0.11643381
Si      13.76274524      12.59971081      14.60580318       0.07401752      -0.05300442      -0.03909720
Si      11.94899505      12.86300538      13.06688345      -0.23563265      -0.07138643      -0.71831190
Si      15.30360099      14.38483487      14.18344523       0.02989600       0.05671648       0.53574124
Si      14.14883764      13.43502489      12.31263703       0.05736885      -0.17439741       0.10523406
5
Lattice="27.25 0.0 0.0 0.0 27.25 0.0 0.0 0.0 27.25" Properties=species:S:1:pos:R:3:forces:R:3 energy=-43.72150718322054 bias_energy=-43.72132442782067 name=N pbc="T T T"
Si      12.95047644      14.85101868      13.89711165       0.09840850       0.26495515       0.07167273
Si      13.55061015      12.55001029      14.55913341       0.09776732      -0.04266748      -0.07937703
Si      12.05400820      12.95846368      12.73462147      -0.21814085      -0.04742495      -0.68272041
Si      15.19810505      14.28984783      14.51475509      -0.00698112       0.04756565       0.55780296
Si      14.37180017      13.47565952      12.41937837       0.02894615      -0.22242837       0.13262175
5
Lattice="27.25 0.0 0.0 0.0 27.25 0.0 0.0 0.0 27.25" Properties=species:S:1:pos:R:3:forces:R:3 energy=-43.721446085662265 bias_energy=-43.721137848846 name=N pbc="T T T"
Si      13.00630033      14.89932826      13.78320471       0.15257878       0.30622214       0.02497708
Si      13.26728042      12.54750273      14.48660760       0.15177156      -0.02379534      -0.11010448
Si      12.23582689      13.10190297      12.39930135      -0.23867515      -0.04175216      -0.60997331
Si      15.01538607      14.14301523      14.85295151      -0.03886785       0.04990573       0.55380766
Si      14.60020628      13.43325080      12.60293483      -0.02680734      -0.29058037       0.14129305
5
Lattice="27.25 0.0 0.0 0.0 27.25 0.0 0.0 0.0 27.25" Properties=species:S:1:pos:R:3:forces:R:3 energy=-43.72136945010407 bias_energy=-43.720656174046134 name=N pbc="T T T"
Si      13.35092015      15.02263089      13.53933725       0.23579657       0.34408616       0.00147393
Si      12.79341166      12.78467665      14.42392876       0.25430535       0.00311279      -0.10506208
Si      12.48789751      13.31132734      12.10282754      -0.33005550      -0.07432852      -0.48531282
Si      14.76615642      13.94306997      15.14273556      -0.03208594       0.08609812       0.48578371
Si      14.72661425      13.06329515      12.91617089      -0.12796048      -0.35896855       0.10311726
5
Lattice="27.25 0.0 0.0 0.0 27.25 0.0 0.0 0.0 27.25" Properties=species:S:1:pos:R:3:forces:R:3 energy=-43.72129398139814 bias_energy=-43.719163325643834 name=N pbc="T T T"
Si      14.02870733      14.78917777      12.90756663       0.23323541       0.29659845       0.05379373
Si      12.73220857      13.73700491      14.73080457       0.37553285       0.00280208      -0.03289821
Si      12.12558194      13.41636763      12.43161978      -0.43441863      -0.14089623      -0.41895427
Si      15.12508733      13.84003970      14.81715631       0.06734216       0.15923606       0.37228853
Si      14.11341482      12.34240999      13.23785271      -0.24169179      -0.31774036       0.02577022
