6
Lattice="14.43676181822573 0.0 0.0 7.541126587245787 14.868848717795132 0.0 6.941025611313658 -2.955490831029866 21.052939554476303" Properties=species:S:1:pos:R:3:momenta:R:3:forces:R:3:energies:R:1 energy=13.823862517977258 stress="0.0 0.0 0.0 0.0 0.0 0.0 0.0 0.0 0.0" free_energy=13.823862517977258 pbc="T T T"
Mg      23.34092561       5.73062164      17.00975865      -9.99960676      70.47385614     -62.82656271      -0.00000000      -0.00000000      -0.00000000       2.30397709
Al      15.80253293       3.59719226      18.20904125     -52.81747394     -66.74596786      61.58829030      -0.00000000      -0.00000000      -0.00000000       2.30397709
Ti       6.12395208       1.06565850       8.93422215    -208.09509898     -66.08791055      64.71156712      -0.00000000      -0.00000000      -0.00000000       2.30397709
Ti      14.70756525      -1.23759478      17.22366619     -21.16195777     -96.04314636     -98.33949601      -0.00000000      -0.00000000      -0.00000000       2.30397709
Ti      17.43236186       4.57691064       3.16004418     261.42133457     -91.25169974    -140.19414798      -0.00000000      -0.00000000      -0.00000000       2.30397709
Ti      20.34225224      -1.89375617      17.98098162      30.65280287     249.65486838     175.06034928      -0.00000000      -0.00000000      -0.00000000       2.30397709
6
Lattice="14.43676181822573 0.0 0.0 7.541126587245787 14.868848717795132 0.0 6.941025611313658 -2.955490831029866 21.052939554476303" Properties=species:S:1:pos:R:3:momenta:R:3:forces:R:3:energies:R:1 energy=13.823862517977258 stress="0.0 0.0 0.0 0.0 0.0 0.0 0.0 0.0 0.0" free_energy=13.823862517977258 pbc="T T T"
Mg      23.30051290       6.01543677      16.75584952      -0.03714076       0.26173600      -0.23333325      -0.00000000      -0.00000000      -0.00000000       2.30397709
Al      15.61024963       3.35420194      18.43325492      -0.19615480      -0.24789093       0.22873440      -0.00000000      -0.00000000      -0.00000000       2.30397709
Ti       5.69692414       0.93004077       9.06701551      -0.77283809      -0.24544711       0.24033402      -0.00000000      -0.00000000      -0.00000000       2.30397709
Ti      14.66413920      -1.43468307      17.02186561      -0.07859742      -0.35669031      -0.36522568      -0.00000000      -0.00000000      -0.00000000       2.30397709
Ti      17.96881954       4.38965479       2.87235447       0.97088272      -0.33889339      -0.52067080      -0.00000000      -0.00000000      -0.00000000       2.30397709
Ti      20.40515427      -1.38144423      18.34021959       0.11384836       0.92718574       0.65016131      -0.00000000      -0.00000000      -0.00000000       2.30397709
6
Lattice="14.736852327216406 0.0 0.0 7.7077154663892395 15.142004306412995 0.0 6.93560300387327 -2.8668878007892196 21.366867663236622" Properties=species:S:1:pos:R:3:momenta:R:3:forces:R:3:energies:R:1 energy=13.823862517977258 stress="0.0 0.0 0.0 0.0 0.0 0.0 0.0 0.0 0.0" free_energy=13.823862517977258 pbc="T T T"
Mg      23.71022862       5.95349548      17.26148328       9.87199879     -72.45817835      64.76091722      -0.00000000      -0.00000000      -0.00000000       2.30397709
Al      16.00413217       3.78504469      18.48225321      55.24264967      68.61095033     -63.48451989      -0.00000000      -0.00000000      -0.00000000       2.30397709
Ti       6.18600783       1.14485822       9.06844469     216.24946284      67.90878887     -66.70395866      -0.00000000      -0.00000000      -0.00000000       2.30397709
Ti      14.89127229      -1.14492474      17.47897330      21.30337051     100.01560008     101.36725114      -0.00000000      -0.00000000      -0.00000000       2.30397709
Ti      17.77965256       4.68101115       3.20499598    -271.96807058      95.34833039     144.51055765      -0.00000000      -0.00000000      -0.00000000       2.30397709
Ti      20.63811670      -1.80260581      18.25181079     -30.69941125    -259.42549132    -180.45024746      -0.00000000      -0.00000000      -0.00000000       2.30397709
6
Lattice="14.5315616345438 0.0 0.0 7.590709365631657 14.96625380312994 0.0 6.985637048431431 -2.9739288704128057 21.190385737367222" Properties=species:S:1:pos:R:3:momenta:R:3:forces:R:3:energies:R:1 energy=13.823862517977258 stress="0.0 0.0 0.0 0.0 0.0 0.0 0.0 0.0 0.0" free_energy=13.823862517977258 pbc="T T T"
Mg      23.53538607       5.47326936      17.38437159       0.01235945      -0.08712121       0.07766840      -0.00000000      -0.00000000      -0.00000000       2.30397709
Al      16.10510413       3.87378037      18.09518222       0.06529922       0.08251264      -0.07613760      -0.00000000      -0.00000000      -0.00000000       2.30397709
Ti       6.60705239       1.21380256       8.85470778       0.25726405       0.08169899      -0.07999871      -0.00000000      -0.00000000      -0.00000000       2.30397709
Ti      14.84842737      -1.04035141      17.54558587       0.02615834       0.11873749       0.12157073      -0.00000000      -0.00000000      -0.00000000       2.30397709
Ti      16.98982067       4.80142520       3.47930285      -0.32319191       0.11281564       0.17331292      -0.00000000      -0.00000000      -0.00000000       2.30397709
Ti      20.40972586      -2.43719226      17.72547560      -0.03788914      -0.30864355      -0.21641574      -0.00000000      -0.00000000      -0.00000000       2.30397709
6
Lattice="15.689465756693428 0.0 0.0 8.233752239516498 16.006706451237907 0.0 6.917890380210176 -2.584667801589749 22.353293610377488" Properties=species:S:1:pos:R:3:momenta:R:3:forces:R:3:energies:R:1 energy=13.823862517977258 stress="0.0 0.0 0.0 0.0 0.0 0.0 0.0 0.0 0.0" free_energy=13.823862517977258 pbc="T T T"
Mg      24.88166754       6.65299707      18.05904169      -9.66494233      80.97856385     -72.91376617      -0.00000000      -0.00000000      -0.00000000       2.30397709
Al      16.64757320       4.38755483      19.33492284     -64.90455216     -76.63037548      71.47668126      -0.00000000      -0.00000000      -0.00000000       2.30397709
Ti       6.39357169       1.39984899       9.48675350    -249.45541952     -75.75923976      75.10142001      -0.00000000      -0.00000000      -0.00000000       2.30397709
Ti      15.47493324      -0.84497703      18.28643647     -22.25390457    -116.06105009    -114.12852635      -0.00000000      -0.00000000      -0.00000000       2.30397709
Ti      18.86698327       5.01573091       3.35370863     314.77960289    -111.72029223    -162.70320838      -0.00000000      -0.00000000      -0.00000000       2.30397709
Ti      21.57514117      -1.52600126      19.09348962      31.49921568     299.19239371     203.16739963      -0.00000000      -0.00000000      -0.00000000       2.30397709
6
Lattice="14.735406226908637 0.0 0.0 7.697686300719495 15.174218944464092 0.0 7.075512530833521 -3.0075051959114134 21.480805752865034" Properties=species:S:1:pos:R:3:momenta:R:3:forces:R:3:energies:R:1 energy=13.823862517977258 stress="0.0 0.0 0.0 0.0 0.0 0.0 0.0 0.0 0.0" free_energy=13.823862517977258 pbc="T T T"
Mg      23.76922426       6.19086938      17.05628085      -0.00730673       0.05161453      -0.04602043      -0.00000000      -0.00000000      -0.00000000       2.30397709
Al      15.89503072       3.39231998      18.84329373      -0.03872210      -0.04888366       0.04511340      -0.00000000      -0.00000000      -0.00000000       2.30397709
Ti       5.74345763       0.93146553       9.27226163      -0.15250289      -0.04840064       0.04740120      -0.00000000      -0.00000000      -0.00000000       2.30397709
Ti      14.95331821      -1.48827489      17.33593355      -0.01547983      -0.07039401      -0.07203364      -0.00000000      -0.00000000      -0.00000000       2.30397709
Ti      18.42424750       4.45139202       2.88529125       0.19159599      -0.06689557      -0.10269216      -0.00000000      -0.00000000      -0.00000000       2.30397709
Ti      20.82930057      -1.32129380      18.76969399       0.02241557       0.18295934       0.12823164      -0.00000000      -0.00000000      -0.00000000       2.30397709
6
Lattice="17.520071200251387 0.0 0.0 9.232503296270934 17.65684907795517 0.0 6.878627908044235 -2.0351625609399897 24.201613936330787" Properties=species:S:1:pos:R:3:momenta:R:3:forces:R:3:energies:R:1 energy=13.823862517977258 stress="0.0 0.0 0.0 0.0 0.0 0.0 0.0 0.0 0.0" free_energy=13.823862517977258 pbc="T T T"
Mg      27.12171787       7.99852704      19.55186535       8.99060412     -99.14123123      90.30716089      -0.00000000      -0.00000000      -0.00000000       2.30397709
Al      17.87322470       5.54526030      20.93403409      86.19316359      93.71431083     -88.52726301      -0.00000000      -0.00000000      -0.00000000       2.30397709
Ti       6.78551150       1.89023672      10.27140112     322.09768426      92.46367440     -93.01667403      -0.00000000      -0.00000000      -0.00000000       2.30397709
Ti      16.59104058      -0.26493433      19.79814868      23.83575086     151.22184669     141.35359798      -0.00000000      -0.00000000      -0.00000000       2.30397709
Ti      20.95515348       5.65487809       3.63054092    -408.80195161     147.77265247     201.51564771      -0.00000000      -0.00000000      -0.00000000       2.30397709
Ti      23.37117998      -0.98544008      20.67286042     -32.31525123    -386.03125316    -251.63246955      -0.00000000      -0.00000000      -0.00000000       2.30397709
6
Lattice="15.082809889131967 0.0 0.0 7.880757014815463 15.52433340816344 0.0 7.2119026957028645 -3.047854855795246 21.9606925183792" Properties=species:S:1:pos:R:3:momenta:R:3:forces:R:3:energies:R:1 energy=13.823862517977258 stress="0.0 0.0 0.0 0.0 0.0 0.0 0.0 0.0 0.0" free_energy=13.823862517977258 pbc="T T T"
Mg      24.41064963       5.61425274      18.09967467       0.00492710      -0.03507467       0.03128769      -0.00000000      -0.00000000      -0.00000000       2.30397709
Al      16.74723159       4.12951393      18.67936984       0.02640305       0.03321753      -0.03067103      -0.00000000      -0.00000000      -0.00000000       2.30397709
Ti       6.98233271       1.31899810       9.13299913       0.10385416       0.03288685      -0.03222643      -0.00000000      -0.00000000      -0.00000000       2.30397709
Ti      15.39399406      -0.98366178      18.24964355       0.01047471       0.04795745       0.04897317      -0.00000000      -0.00000000      -0.00000000       2.30397709
Ti      17.45216379       5.04822743       3.70022213      -0.13050774       0.04560483       0.06981683      -0.00000000      -0.00000000      -0.00000000       2.30397709
Ti      21.13107456      -2.66568595      18.25189897      -0.01515127      -0.12459200      -0.08718023      -0.00000000      -0.00000000      -0.00000000       2.30397709
6
Lattice="20.83643442031754 0.0 0.0 10.999623557531008 20.605522215951087 0.0 6.790994521075287 -1.0169784144406713 27.38655147172643" Properties=species:S:1:pos:R:3:momenta:R:3:forces:R:3:energies:R:1 energy=13.823862517977258 stress="0.0 0.0 0.0 0.0 0.0 0.0 0.0 0.0 0.0" free_energy=13.823862517977258 pbc="T T T"
Mg      31.14354909      10.43106732      22.12521036      -6.57301911     134.51792572    -124.25723410      -0.00000000      -0.00000000      -0.00000000       2.30397709
Al      20.06274971       7.64629883      23.68867893    -130.93947421    -126.93866701     121.80820143      -0.00000000      -0.00000000      -0.00000000       2.30397709
Ti       7.48379212       2.78243628      11.62295475    -472.38880966    -124.85772276     127.98536158      -0.00000000      -0.00000000      -0.00000000       2.30397709
Ti      18.59629419       0.80206795      22.40383990     -24.81838867    -224.22565622    -194.49406828      -0.00000000      -0.00000000      -0.00000000       2.30397709
Ti      24.71907595       6.80324891       4.10867821     605.01097830    -223.43618641    -277.27343841      -0.00000000      -0.00000000      -0.00000000       2.30397709
Ti      26.60882998       0.00930530      23.39296704      29.70871335     564.94030668     346.23117777      -0.00000000      -0.00000000      -0.00000000       2.30397709
6
Lattice="15.648475299707373 0.0 0.0 8.179374119496895 16.083728433939967 0.0 7.396257713702454 -3.0754576153152 22.70417465876637" Properties=species:S:1:pos:R:3:momenta:R:3:forces:R:3:energies:R:1 energy=13.823862517977258 stress="0.0 0.0 0.0 0.0 0.0 0.0 0.0 0.0 0.0" free_energy=13.823862517977258 pbc="T T T"
Mg      25.12850762       6.81668359      17.87980576      -0.00326695       0.02374693      -0.02120685      -0.00000000      -0.00000000      -0.00000000       2.30397709
Al      16.66527457       3.55293690      20.04701881      -0.01804176      -0.02248702       0.02078888      -0.00000000      -0.00000000      -0.00000000       2.30397709
Ti       5.79884328       0.95697429       9.87766287      -0.07072732      -0.02225860       0.02184313      -0.00000000      -0.00000000      -0.00000000       2.30397709
Ti      15.76040341      -1.60258725      18.20572969      -0.00700602      -0.03269428      -0.03319410      -0.00000000      -0.00000000      -0.00000000       2.30397709
Ti      19.86647701       4.62301165       2.88208234       0.08894266      -0.03114747      -0.04732197      -0.00000000      -0.00000000      -0.00000000       2.30397709
Ti      22.05329975      -1.00199233      20.04785654       0.01009939       0.08484044       0.05909091      -0.00000000      -0.00000000      -0.00000000       2.30397709
6
Lattice="27.429550902626758 0.0 0.0 14.356518692382444 26.31694247038624 0.0 6.582417704824688 1.059963433015455 33.13659752276476" Properties=species:S:1:pos:R:3:momenta:R:3:forces:R:3:energies:R:1 energy=13.823862517977258 stress="0.0 0.0 0.0 0.0 0.0 0.0 0.0 0.0 0.0" free_energy=13.823862517977258 pbc="T T T"
Mg      39.02604401      15.22827255      26.77034165      -1.63254408    -208.14310971     194.24763026      -0.00000000      -0.00000000      -0.00000000       2.30397709
Al      24.32053425      11.80579193      28.66254521     235.30241022     195.90896230    -190.41913048      -0.00000000      -0.00000000      -0.00000000       2.30397709
Ti       8.83152442       4.55463907      14.06342662     816.75161786     191.78775663    -200.07570083      -0.00000000      -0.00000000      -0.00000000       2.30397709
Ti      22.54226892       2.95379014      27.10752324      18.78705896     391.64247876     304.04677954      -0.00000000      -0.00000000      -0.00000000       2.30397709
Ti      32.14603696       9.04259005       4.97104768   -1061.66406623     399.55152643     433.45330140      -0.00000000      -0.00000000      -0.00000000       2.30397709
Ti      33.00956182       2.02737554      28.30487905      -7.54447673    -970.74761440    -541.25287989      -0.00000000      -0.00000000      -0.00000000       2.30397709
6
Lattice="16.616226879130316 0.0 0.0 8.685892040935688 17.012223622889284 0.0 7.628486772519153 -3.038053460328068 23.873272227084538" Properties=species:S:1:pos:R:3:momenta:R:3:forces:R:3:energies:R:1 energy=13.823862517977258 stress="0.0 0.0 0.0 0.0 0.0 0.0 0.0 0.0 0.0" free_energy=13.823862517977258 pbc="T T T"
Mg      26.67084031       6.11550244      19.93164585       0.00182959      -0.01399375       0.01252337      -0.00000000      -0.00000000      -0.00000000       2.30397709
Al      18.38224157       5.02570850      20.08042341       0.01087538       0.01324754      -0.01227654      -0.00000000      -0.00000000      -0.00000000       2.30397709
Ti       7.99964533       1.70682610       9.79469694       0.04229998       0.01310624      -0.01289911      -0.00000000      -0.00000000      -0.00000000       2.30397709
Ti      16.73771738      -0.62389594      20.04220954       0.00399403       0.01959803       0.01960224      -0.00000000      -0.00000000      -0.00000000       2.30397709
Ti      18.62199836       5.77733433       4.31214230      -0.05330310       0.01875428       0.02794523      -0.00000000      -0.00000000      -0.00000000       2.30397709
Ti      22.95717641      -3.19591015      19.47977276      -0.00569588      -0.05071235      -0.03489519      -0.00000000      -0.00000000      -0.00000000       2.30397709
6
Lattice="44.34853940743029 0.0 0.0 22.24415741191248 40.24992540612715 0.0 6.0807932635020245 6.401172028838033 45.33347397091748" Properties=species:S:1:pos:R:3:momenta:R:3:forces:R:3:energies:R:1 energy=13.823862517977258 stress="0.0 0.0 0.0 0.0 0.0 0.0 0.0 0.0 0.0" free_energy=13.823862517977258 pbc="T T T"
Mg      58.88410153      27.15205389      36.62412699      29.49037290     398.24175237    -364.53321045      -0.00000000      -0.00000000      -0.00000000       2.30397709
Al      34.97585393      22.19095095      39.21244846    -547.63376715    -373.33240873     357.34848797      -0.00000000      -0.00000000      -0.00000000       2.30397709
Ti      12.19245903       8.99478177      19.23977417   -1839.21272972    -362.77543146     375.47041092      -0.00000000      -0.00000000      -0.00000000       2.30397709
Ti      32.63819478       8.42817568      37.08537850      35.01325175    -881.81874905    -570.58687678      -0.00000000      -0.00000000      -0.00000000       2.30397709
Ti      50.96257518      14.54734259       6.80100235    2455.91162085    -924.01810526    -813.43655688      -0.00000000      -0.00000000      -0.00000000       2.30397709
Ti      49.43256628       7.18320060      38.72303079    -133.56874863    2143.70294213    1015.73774521      -0.00000000      -0.00000000      -0.00000000       2.30397709
6
Lattice="18.606888886206278 0.0 0.0 9.684360940967402 18.81890898476529 0.0 7.901423636369607 -2.7507161164848735 25.90813608141744" Properties=species:S:1:pos:R:3:momenta:R:3:forces:R:3:energies:R:1 energy=13.823862517977258 stress="0.0 0.0 0.0 0.0 0.0 0.0 0.0 0.0 0.0" free_energy=13.823862517977258 pbc="T T T"
Mg      29.09352715       9.15255338      19.94662937      -0.00065311       0.00567982      -0.00509197      -0.00000000      -0.00000000      -0.00000000       2.30397709
Al      18.63374734       4.47193140      23.27897264      -0.00467538      -0.00537292       0.00499161      -0.00000000      -0.00000000      -0.00000000       2.30397709
Ti       5.68766911       1.24697978      11.51023675      -0.01786588      -0.00530840       0.00524475      -0.00000000      -0.00000000      -0.00000000       2.30397709
Ti      17.95524396      -1.57349504      20.41219815      -0.00145802      -0.00831005      -0.00797023      -0.00000000      -0.00000000      -0.00000000       2.30397709
Ti      24.52744856       5.15092955       2.77174982       0.02266482      -0.00804023      -0.01136247      -0.00000000      -0.00000000      -0.00000000       2.30397709
Ti      25.51996327       0.54780545      23.52259871       0.00198756       0.02135178       0.01418831      -0.00000000      -0.00000000      -0.00000000       2.30397709
6
Lattice="120.58352668691481 0.0 0.0 52.2831805803994 96.54293122083669 0.0 5.9564525572495155 28.035858793240777 81.95548853903932" Properties=species:S:1:pos:R:3:momenta:R:3:forces:R:3:energies:R:1 energy=13.823862517977258 stress="0.0 0.0 0.0 0.0 0.0 0.0 0.0 0.0 0.0" free_energy=13.823862517977258 pbc="T T T"
Mg     147.08325089      75.37236406      66.21028690    -107.00220935   -1239.90534588     957.66603061      -0.00000000      -0.00000000      -0.00000000       2.30397709
Al      82.55760563      64.19650498      70.88979293    2159.51607612    1156.00297063    -938.79102977      -0.00000000      -0.00000000      -0.00000000       2.30397709
Ti      27.38292983      26.95703594      34.78242545    7271.28526171    1111.83888507    -986.39917499      -0.00000000      -0.00000000      -0.00000000       2.30397709
Ti      79.44030555      30.59015983      67.04418073    -568.97421443    3305.59612637    1498.99008854      -0.00000000      -0.00000000      -0.00000000       2.30397709
Ti     134.21338771      36.79540419      12.29494971  -10219.05285872    3551.40965010    2136.98103835      -0.00000000      -0.00000000      -0.00000000       2.30397709
Ti     125.02260065      28.06288695      70.00507525    1464.22794468   -7884.94228628   -2668.44695275      -0.00000000      -0.00000000      -0.00000000       2.30397709
6
Lattice="25.57654195397914 0.0 0.0 12.706298430036018 24.399022948657276 0.0 8.245684785053944 -1.1302449664350376 30.64509681712784" Properties=species:S:1:pos:R:3:momenta:R:3:forces:R:3:energies:R:1 energy=13.823862517977258 stress="0.0 0.0 0.0 0.0 0.0 0.0 0.0 0.0 0.0" free_energy=13.823862517977258 pbc="T T T"
Mg      37.87879621      10.43319165      26.48803067       0.00007119      -0.00089271       0.00078093      -0.00000000      -0.00000000      -0.00000000       2.30397709
Al      25.97285637      10.79921854      24.97931399       0.00087839       0.00084234      -0.00076553      -0.00000000      -0.00000000      -0.00000000       2.30397709
Ti      12.66121625       4.25808421      12.10096094       0.00323291       0.00082841      -0.00080436      -0.00000000      -0.00000000      -0.00000000       2.30397709
Ti      22.82188403       2.69122039      26.44471396       0.00011734       0.00149411       0.00122235      -0.00000000      -0.00000000      -0.00000000       2.30397709
Ti      25.30493340       9.74332301       6.55803089      -0.00422665       0.00149011       0.00174259      -0.00000000      -0.00000000      -0.00000000       2.30397709
Ti      32.46890896      -4.15862765      23.72828172      -0.00007317      -0.00376227      -0.00217598      -0.00000000      -0.00000000      -0.00000000       2.30397709
6
Lattice="1538.2841500672746 0.0 0.0 476.0609796801212 872.648845295934 0.0 93.55757797265039 284.5998822651156 333.4372498186551" Properties=species:S:1:pos:R:3:momenta:R:3:forces:R:3:energies:R:1 energy=13.823862517977258 stress="0.0 0.0 0.0 0.0 0.0 0.0 0.0 0.0 0.0" free_energy=13.823862517977258 pbc="T T T"
Mg    1786.27629886     706.48189240     269.37770729   -2956.70974808   16525.00584453   -5937.98954958      -0.00000000      -0.00000000      -0.00000000       2.30397709
Al     989.39231252     607.24454661     288.41622502  -37226.46318702  -15380.15181585    5820.95547488      -0.00000000      -0.00000000      -0.00000000       2.30397709
Ti     327.00377859     256.89889362     141.51283271 -136677.21660939  -14744.16050984    6116.14885104      -0.00000000      -0.00000000      -0.00000000       2.30397709
Ti    1012.65565773     302.01457051     272.77040392   18989.01703411  -46405.58872855   -9294.45881564      -0.00000000      -0.00000000      -0.00000000       2.30397709
Ti    1650.34876692     337.27122034      50.02228245  206479.09049321  -50161.76727457  -13250.30926000      -0.00000000      -0.00000000      -0.00000000       2.30397709
Ti    1601.78496899     280.29634005     284.81670011  -48607.71798284  110166.66248428   16545.65329930      -0.00000000      -0.00000000      -0.00000000       2.30397709
6
Lattice="156.3602462916611 0.0 0.0 53.18064592274911 98.59087039065535 0.0 16.199806180238344 23.06626366539652 58.99360483042919" Properties=species:S:1:pos:R:3:momenta:R:3:forces:R:3:energies:R:1 energy=13.823862517977258 stress="0.0 0.0 0.0 0.0 0.0 0.0 0.0 0.0 0.0" free_energy=13.823862517977258 pbc="T T T"
Mg     188.10965460      82.44154133      42.49929697      -0.00000238       0.00001606      -0.00000832      -0.00000000      -0.00000000      -0.00000000       2.30397709
Al      91.61617004      52.35466072      55.58522136      -0.00002991      -0.00001501       0.00000815      -0.00000000      -0.00000000      -0.00000000       2.30397709
Ti       2.20736872      20.59688911      27.73618612      -0.00010986      -0.00001451       0.00000857      -0.00000000      -0.00000000      -0.00000000       2.30397709
Ti     112.60719274      14.24248410      44.15862303       0.00001213      -0.00003950      -0.00001302      -0.00000000      -0.00000000      -0.00000000       2.30397709
Ti     221.52368523      23.50698272       3.00312680       0.00016233      -0.00004200      -0.00001856      -0.00000000      -0.00000000      -0.00000000       2.30397709
Ti     158.55369983      53.82397347      57.69265043      -0.00003230       0.00009495       0.00002317      -0.00000000      -0.00000000      -0.00000000       2.30397709
6
Lattice="3202314.349776077 0.0 0.0 687551.3297590873 593964.6412955191 0.0 151028.42415223768 183049.87447611778 50728.10166974488" Properties=species:S:1:pos:R:3:momenta:R:3:forces:R:3:energies:R:1 energy=13.823862517977258 stress="0.0 0.0 0.0 0.0 0.0 0.0 0.0 0.0 0.0" free_energy=13.823862517977258 pbc="T T T"
Mg 3517502.73401165  472250.36165836   40982.28290735 11199417.13182959 -9940629.12660954  785154.40672098      -0.00000000      -0.00000000      -0.00000000       2.30397709
Al 1896260.52429461  404096.12780877   43878.74363405 61866540.86529306 9260121.54884443 -769679.50250920      -0.00000000      -0.00000000      -0.00000000       2.30397709
Ti  614840.30150041  170332.18141960   21529.32037223 241951646.76696020 8892095.21118393 -808711.63252470      -0.00000000      -0.00000000      -0.00000000       2.30397709
Ti 2048248.26198537  196842.95342821   41498.43718706 -47044867.07700914 27193605.08158159 1228965.66864070      -0.00000000      -0.00000000      -0.00000000       2.30397709
Ti 3326597.02600940  227962.70447578    7610.23373732 -386834743.23071599 29305691.78551789 1752030.48422925      -0.00000000      -0.00000000      -0.00000000       2.30397709
Ti 3284213.71956431  181675.35232303   43331.12318942 118862005.54364432 -64710884.50051817 -2187759.42455705      -0.00000000      -0.00000000      -0.00000000       2.30397709
6
Lattice="4417582.300901817 0.0 0.0 948494.4605149998 819441.8464322257 0.0 208352.0410881633 252530.83576933417 70035.75936791422" Properties=species:S:1:pos:R:3:momenta:R:3:forces:R:3:energies:R:1 energy=13.823862517977258 stress="0.0 0.0 0.0 0.0 0.0 0.0 0.0 0.0 0.0" free_energy=13.823862517977258 pbc="T T T"
Mg 4889960.35626739  618176.18415832   59215.88142053       0.00000004      -0.00000002       0.00000000      -0.00000000      -0.00000000      -0.00000000       2.30397709
Al 2802801.77120398  585467.94541169   58252.36581066       0.00000011       0.00000002      -0.00000000      -0.00000000      -0.00000000      -0.00000000       2.30397709
Ti 1260192.26486751  250133.14909247   28345.35763632       0.00000051       0.00000003      -0.00000000      -0.00000000      -0.00000000      -0.00000000       2.30397709
Ti 2745449.99532917  317872.48499119   59387.65885536      -0.00000008       0.00000007       0.00000000      -0.00000000      -0.00000000      -0.00000000       2.30397709
Ti 3930305.44466869  364407.45101189   13492.67965597      -0.00000077       0.00000006       0.00000000      -0.00000000      -0.00000000      -0.00000000       2.30397709
Ti 4732975.69156562  140431.66353723   56094.90825167       0.00000027      -0.00000013      -0.00000001      -0.00000000      -0.00000000      -0.00000000       2.30397709
6
Lattice="9.108661302165821e+17 0.0 0.0 1.913413626793922e+17 1.1405214476147235e+17 0.0 4.163062861490989e+16 3.5151908917938184e+16 9618663324006444.0" Properties=species:S:1:pos:R:3:momenta:R:3:forces:R:3:energies:R:1 energy=13.823862517977258 stress="0.0 0.0 0.0 0.0 0.0 0.0 0.0 0.0 0.0" free_energy=13.823862517977258 pbc="T T T"
Mg 997137839296093696.00000000 90683156690490368.00000000 7770737886099113.00000000 -10855273.12524671 6363690.21246157 -496364.97462518      -0.00000000      -0.00000000      -0.00000000       2.30397709
Al 536475202819909504.00000000 77596458422850688.00000000 8319941969127414.00000000 -58451198.87635864 -5928119.90899608  486566.21397008      -0.00000000      -0.00000000      -0.00000000       2.30397709
Ti 173662468431066688.00000000 32708171997459320.00000000 4082220257390032.50000000 -229239831.89107445 -5693648.23789982  511219.97521838      -0.00000000      -0.00000000      -0.00000000       2.30397709
Ti 581182270456886272.00000000 37799894795376680.00000000 7868606997625185.00000000 45261449.85075229 -17410509.52904332 -776814.98206615      -0.00000000      -0.00000000      -0.00000000       2.30397709
Ti 944591429987506944.00000000 43773480148692344.00000000 1442992616061235.75000000 367544285.92926675 -18762270.93889232 -1107654.12113737      -0.00000000      -0.00000000      -0.00000000       2.30397709
Ti 932847205711288320.00000000 34887543242417700.00000000 8216106491102020.00000000 -114245687.66244109 41426426.57372376 1383071.52476055      -0.00000000      -0.00000000      -0.00000000       2.30397709
6
Lattice="3.286906466656355e+29 0.0 0.0 6.904649777461709e+28 4.115629286417456e+28 0.0 1.5022622739609396e+28 1.2684743993084179e+28 3.47094327382111e+27" Properties=species:S:1:pos:R:3:momenta:R:3:forces:R:3:energies:R:1 energy=13.823862517977258 stress="0.0 0.0 0.0 0.0 0.0 0.0 0.0 0.0 0.0" free_energy=13.823862517977258 pbc="T T T"
Mg 362678546003001662907227308032.00000000 31048982128889585420533235712.00000000 2934714596869650940229058560.00000000       0.00000000       0.00000000       0.00000000      -0.00000000      -0.00000000      -0.00000000       2.30397709
Al 207444359506913759073025392640.00000000 29406198017434935206514524160.00000000 2886963161670427533941669888.00000000       0.00000000       0.00000000       0.00000000      -0.00000000      -0.00000000      -0.00000000       2.30397709
Ti 93294993887137320186014597120.00000000 12563465668177744137279242240.00000000 1404784203381633964054675456.00000000 -933893715837508.87500000 -556662604358051.18750000       0.00000000      -0.00000000      -0.00000000      -0.00000000       2.30397709