6
Lattice="4.615794291051313 -1.5013954047475604 1.5919278635749374 2.5852371240313183 5.274509435757954 -2.310616446673702 2.3017916531017377 -0.71757295302199 6.667685620451664" Properties=species:S:1:pos:R:3:momenta:R:3:energies:R:1:forces:R:3 energy=-301.0648073390525 free_energy=-301.0648073390525 stress="-1.4112248876011457e-05 5.5345187578621025e-05 -0.00028524142583423017 5.5345187578621025e-05 -0.0004480580373677716 -0.0001988559077840508 -0.00028524142583423017 -0.0001988559077840508 -0.0004653861103713865" pbc="T T T"
Mg       7.05314503       2.19358512       5.85036251      -1.05624026      -0.27121457      -0.67619875    -107.26288084       0.00200313       0.00325909       0.00713343
Al       5.77824738      -0.54356120       6.86991872       0.11128088       0.35512310      -0.10746015     -25.31228795       0.02400636      -0.00409286      -0.01664636
Ti       2.65466696       0.63764044       2.89663108       1.20940490      -0.35157524       0.79839272     -47.27652772      -0.00572194      -0.00036631       0.01303178
Ti       0.69838245       0.38691780       0.22178444      -0.87081353      -0.65839092       0.34358175     -45.05184836      -0.01361224       0.01928745      -0.01159645
Ti       1.55910927       1.94077406      -0.70686657       0.10434782       1.74923160       1.40664288     -46.29034785       0.00027893      -0.02208112       0.01525749
Ti       5.12742628       3.79991726       2.32270912       0.50202019      -0.82317396      -1.76495845     -29.87091461      -0.00695424       0.00399376      -0.00717988
