6
Lattice="10.322738413106274 0.0 0.0 5.392142509546926 10.6316941257616 0.0 4.963051452009598 -2.113268828231242 15.053513425249983" Properties=species:S:1:pos:R:3:momenta:R:3:energies:R:1:forces:R:3 energy=-81.1918592627116 free_energy=-81.1918592627116 stress="1.7633103623917243e-05 2.5522257910173958e-05 2.979620260424862e-06 2.5522257910173958e-05 4.881586864236083e-05 -9.754212429202189e-06 2.979620260424862e-06 -9.754212429202189e-06 1.868648055643596e-05" pbc="T T T"
Mg      10.60562511       5.64105520       2.13744687      -0.24594935       1.86139296      -0.11288475     -11.79353062       0.00462008      -0.00572298       0.01762927
Al      15.68486153       1.84957830      19.49824591      -1.64531419      -1.05283984      -0.00140289     -13.28345190      -0.00736451       0.00411014      -0.01356589
Ti      -3.41614743      -7.34206307       6.73635474      -0.11473891       1.29941697       1.08114673     -13.96106434       0.00976368       0.01364636       0.00297858
Ti       7.19335033      -4.54873856       4.86288952       1.43875970      -1.27386545      -0.23470973     -14.09647864      -0.01536107      -0.02311064      -0.00571627
Ti      19.65871133       1.91610544       5.88770645       0.60785096       0.35351613      -1.22920670     -13.96013757       0.00139918       0.00025580       0.00094622
Ti      19.14341817      11.34124701      17.73626989      -0.04060821      -1.18762076       0.49705733     -14.09719620       0.00694263       0.01082132      -0.00227190
