6
Lattice="14.43676181822573 0.0 0.0 7.541126587245787 14.868848717795132 0.0 6.941025611313658 -2.955490831029866 21.052939554476303" Properties=species:S:1:pos:R:3:energies:R:1:forces:R:3 pbc="T T T"
Mg      23.34092561       5.73062164      17.00975865     -11.19633573      -0.00000578      -0.00000176      -0.00000023
Al      15.80253293       3.59719226      18.20904125       2.30397709      -0.00000000      -0.00000000      -0.00000000
Ti       6.12395208       1.06565850       8.93422215      -4.38040983      -0.00000207      -0.00000363      -0.00000001
Ti      14.70756525      -1.23759478      17.22366619      -7.15208292       0.00000546       0.00000608       0.00000011
Ti      17.43236186       4.57691064       3.16004418       2.30397709      -0.00000000      -0.00000000      -0.00000000
Ti      20.34225224      -1.89375617      17.98098162      -1.63549707       0.00000239      -0.00000069       0.00000013
