6
Lattice="14.43676181822573 0.0 0.0 7.541126587245787 14.868848717795132 0.0 6.941025611313658 -2.955490831029866 21.052939554476303" Properties=species:S:1:pos:R:3:energies:R:1:forces:R:3 Combination=Al-Mg-Ti Element_Counts=Al:1/Mg:1/Ti:4 Total_Atoms=6 Num_Element_Types=3 Allocation_ID=114 Min_Distance=2.195 comment="initial_cell='a=14.437, b=16.672, c=22.364 | ¦Á=88.71, ¦Â=71.92, ¦Ã=63.11' final_cell='a=14.437, b=16.672, c=22.364 | ¦Á=88.71, ¦Â=71.92, ¦Ã=63.11' volume_change=0.00% optimizer_steps=0 optimization_time=0.1s a_change=0.00% b_change=0.00% c_change=0.00% alpha_change=0.00¡ã beta_change=0.00¡ã gamma_change=0.00¡ã" energy=-19.75637137591802 free_energy=-19.75637137591802 stress="-1.2032605544933975e-05 -2.366656397382385e-05 -2.1849669808282764e-11 -2.366656397382385e-05 -4.655728944364909e-05 1.4990430879339936e-10 -2.1849669808282764e-11 1.4990430879339936e-10 -4.510359225374746e-12" pbc="T T T"
Mg      23.34092561       5.73062164      17.00975865     -11.19633573      -0.00000578      -0.00000176      -0.00000023
Al      15.80253293       3.59719226      18.20904125       2.30397709      -0.00000000      -0.00000000      -0.00000000
Ti       6.12395208       1.06565850       8.93422215      -4.38040983      -0.00000207      -0.00000363      -0.00000001
Ti      14.70756525      -1.23759478      17.22366619      -7.15208292       0.00000546       0.00000608       0.00000011
Ti      17.43236186       4.57691064       3.16004418       2.30397709      -0.00000000      -0.00000000      -0.00000000
Ti      20.34225224      -1.89375617      17.98098162      -1.63549707       0.00000239      -0.00000069       0.00000013
6
Lattice="11.623662962455999 0.0 0.0 -3.1651123509082573 9.972910064071113 0.0 -3.835623379810937 0.8545242428390307 18.876902139336845" Properties=species:S:1:pos:R:3:energies:R:1:forces:R:3 Combination=Al-Mg-Ti Element_Counts=Al:1/Mg:2/Ti:3 Total_Atoms=6 Num_Element_Types=3 Allocation_ID=123 Min_Distance=2.195 comment="initial_cell='a=11.624, b=10.463, c=19.282 | ¦Á=84.12, ¦Â=101.47, ¦Ã=107.61' final_cell='a=11.624, b=10.463, c=19.282 | ¦Á=84.12, ¦Â=101.47, ¦Ã=107.61' volume_change=0.00% optimizer_steps=53 optimization_time=0.6s a_change=0.00% b_change=0.00% c_change=0.00% alpha_change=0.00¡ã beta_change=0.00¡ã gamma_change=0.00¡ã" energy=-19.75637137591802 free_energy=-19.75637137591802 stress="-1.2032605544933975e-05 -2.366656397382385e-05 -2.1849669808282764e-11 -2.366656397382385e-05 -4.655728944364909e-05 1.4990430879339936e-10 -2.1849669808282764e-11 1.4990430879339936e-10 -4.510359225374746e-12" pbc="T T T"
Ti       2.58504382       5.98414878      18.47916584     -11.19633573      -0.00000578      -0.00000176      -0.00000023
Mg       1.95793429       7.39064571      15.12056829       2.30397709      -0.00000000      -0.00000000      -0.00000000
Ti       6.88791088       3.83772804       8.37483508      -4.38040983      -0.00000207      -0.00000363      -0.00000001
Ti      -3.21541838      10.25450569       8.79340008      -7.15208292       0.00000546       0.00000608       0.00000011
Al      -2.83126588       3.46820662      16.36043004       2.30397709      -0.00000000      -0.00000000      -0.00000000
Mg      -0.07248446       5.21222088      16.59145677      -1.63549707       0.00000239      -0.00000069       0.00000013
6
Lattice="17.97754226105854 0.0 0.0 -6.2373483133270105 17.398008163993193 0.0 -0.6432306343005293 -2.6083914246903945 11.283311884299833" Properties=species:S:1:pos:R:3:energies:R:1:forces:R:3 Combination=Al-Mg-Ti Element_Counts=Al:1/Mg:3/Ti:2 Total_Atoms=6 Num_Element_Types=3 Allocation_ID=132 Min_Distance=2.195 comment="initial_cell='a=17.978, b=18.482, c=11.599 | ¦Á=101.13, ¦Â=93.18, ¦Ã=109.72' final_cell='a=17.978, b=18.482, c=11.599 | ¦Á=101.13, ¦Â=93.18, ¦Ã=109.72' volume_change=0.00% optimizer_steps=2000 optimization_time=11.9s a_change=0.00% b_change=0.00% c_change=0.00% alpha_change=0.00¡ã beta_change=0.00¡ã gamma_change=0.00¡ã" energy=-19.75637137591802 free_energy=-19.75637137591802 stress="-1.2032605544933975e-05 -2.366656397382385e-05 -2.1849669808282764e-11 -2.366656397382385e-05 -4.655728944364909e-05 1.4990430879339936e-10 -2.1849669808282764e-11 1.4990430879339936e-10 -4.510359225374746e-12" pbc="T T T"
Al      13.96796796       8.04072453       3.89764588     -11.19633573      -0.00000578      -0.00000176      -0.00000023
Mg       8.60706388      11.85524580       2.79043511       2.30397709      -0.00000000      -0.00000000      -0.00000000
Ti      -3.29106089       8.83486504       1.25863202      -4.38040983      -0.00000207      -0.00000363      -0.00000001
Mg      -2.95539616      10.83913115       3.96615026      -7.15208292       0.00000546       0.00000608       0.00000011
Ti      11.73920138      10.53101138       3.32851347       2.30397709      -0.00000000      -0.00000000      -0.00000000
Mg      -0.87935380      12.83484405       5.54896701      -1.63549707       0.00000239      -0.00000069       0.00000013
6
Lattice="22.538479978823915 0.0 0.0 -7.916945560152917 22.696878123821715 0.0 -1.0352310899163715 1.1334986943674017 7.355259203569425" Properties=species:S:1:pos:R:3:energies:R:1:forces:R:3 Combination=Al-Mg-Ti Element_Counts=Al:1/Mg:4/Ti:1 Total_Atoms=6 Num_Element_Types=3 Allocation_ID=141 Min_Distance=2.195 comment="initial_cell='a=22.538, b=24.038, c=7.514 | ¦Á=79.17, ¦Â=97.92, ¦Ã=109.23' final_cell='a=22.538, b=24.038, c=7.514 | ¦Á=79.17, ¦Â=97.92, ¦Ã=109.23' volume_change=0.00% optimizer_steps=13 optimization_time=0.1s a_change=0.00% b_change=0.00% c_change=0.00% alpha_change=0.00¡ã beta_change=0.00¡ã gamma_change=0.00¡ã" energy=-19.75637137591802 free_energy=-19.75637137591802 stress="-1.2032605544933975e-05 -2.366656397382385e-05 -2.1849669808282764e-11 -2.366656397382385e-05 -4.655728944364909e-05 1.4990430879339936e-10 -2.1849669808282764e-11 1.4990430879339936e-10 -4.510359225374746e-12" pbc="T T T"
Al       6.31458650      12.69630559       3.54520801     -11.19633573      -0.00000578      -0.00000176      -0.00000023
Mg       8.25343534      18.37644785       7.05046070       2.30397709      -0.00000000      -0.00000000      -0.00000000
Ti      -6.29523517      17.43498852       4.48206224      -4.38040983      -0.00000207      -0.00000363      -0.00000001
Mg       2.41731063      22.93369780       3.15142529      -7.15208292       0.00000546       0.00000608       0.00000011
Mg       1.70569359      16.77318402       7.06793823       2.30397709      -0.00000000      -0.00000000      -0.00000000
Mg       8.03406990      12.02696825       1.24763906      -1.63549707       0.00000239      -0.00000069       0.00000013
6
Lattice="16.041605051501193 0.0 0.0 -5.06694134674914 20.596437225410767 0.0 -5.998186100251632 -9.680433916558194 17.008620694177925" Properties=species:S:1:pos:R:3:energies:R:1:forces:R:3 Combination=Al-Mg-Ti Element_Counts=Al:2/Mg:1/Ti:3 Total_Atoms=6 Num_Element_Types=3 Allocation_ID=213 Min_Distance=2.195 comment="initial_cell='a=16.042, b=21.211, c=20.469 | ¦Á=112.91, ¦Â=107.04, ¦Ã=103.82' final_cell='a=16.042, b=21.211, c=20.469 | ¦Á=112.91, ¦Â=107.04, ¦Ã=103.82' volume_change=0.00% optimizer_steps=0 optimization_time=0.0s a_change=0.00% b_change=0.00% c_change=0.00% alpha_change=0.00¡ã beta_change=0.00¡ã gamma_change=0.00¡ã" energy=-19.75637137591802 free_energy=-19.75637137591802 stress="-1.2032605544933975e-05 -2.366656397382385e-05 -2.1849669808282764e-11 -2.366656397382385e-05 -4.655728944364909e-05 1.4990430879339936e-10 -2.1849669808282764e-11 1.4990430879339936e-10 -4.510359225374746e-12" pbc="T T T"
Ti       0.40368222       9.13631088       4.69480934     -11.19633573      -0.00000578      -0.00000176      -0.00000023
Al       1.76126470       3.79242336       7.02894981       2.30397709      -0.00000000      -0.00000000      -0.00000000
Al       2.21876031      15.45829180       3.26052451      -4.38040983      -0.00000207      -0.00000363      -0.00000001
Ti      -2.62362017      17.97725042       3.30728305      -7.15208292       0.00000546       0.00000608       0.00000011
Ti      10.11974848      -0.47270011       4.04344669       2.30397709      -0.00000000      -0.00000000      -0.00000000
Mg      15.04099302       1.68812726       0.87014436      -1.63549707       0.00000239      -0.00000069       0.00000013
6
Lattice="17.723774948482298 0.0 0.0 -1.2422745817287373 9.090425356274537 0.0 -1.5899373687148275 5.8416145362204706 15.873616087609971" Properties=species:S:1:pos:R:3:energies:R:1:forces:R:3 Combination=Al-Mg-Ti Element_Counts=Al:2/Mg:2/Ti:2 Total_Atoms=6 Num_Element_Types=3 Allocation_ID=222 Min_Distance=2.195 comment="initial_cell='a=17.724, b=9.175, c=16.989 | ¦Á=69.31, ¦Â=95.37, ¦Ã=97.78' final_cell='a=17.724, b=9.175, c=16.989 | ¦Á=69.31, ¦Â=95.37, ¦Ã=97.78' volume_change=0.00% optimizer_steps=15 optimization_time=0.1s a_change=0.00% b_change=0.00% c_change=0.00% alpha_change=0.00¡ã beta_change=0.00¡ã gamma_change=0.00¡ã" energy=-19.75637137591802 free_energy=-19.75637137591802 stress="-1.2032605544933975e-05 -2.366656397382385e-05 -2.1849669808282764e-11 -2.366656397382385e-05 -4.655728944364909e-05 1.4990430879339936e-10 -2.1849669808282764e-11 1.4990430879339936e-10 -4.510359225374746e-12" pbc="T T T"
Al       5.83698299      11.85075560      11.34291198     -11.19633573      -0.00000578      -0.00000176      -0.00000023
Mg       2.28395688       6.75776456       9.51989823       2.30397709      -0.00000000      -0.00000000      -0.00000000
Ti       3.41686301       8.47612392       1.83384410      -4.38040983      -0.00000207      -0.00000363      -0.00000001
Mg       6.46355987       6.92279461      12.86448015      -7.15208292       0.00000546       0.00000608       0.00000011
Ti       1.15216487       5.98813408       1.61877525       2.30397709      -0.00000000      -0.00000000      -0.00000000
Al      15.66426236       9.14200456       6.80625039      -1.63549707       0.00000239      -0.00000069       0.00000013
6
Lattice="7.648852346064342 0.0 0.0 -2.180752778369822 11.475356781419674 0.0 4.315058221737952 4.157560284082164 7.76748346629938" Properties=species:S:1:pos:R:3:energies:R:1:forces:R:3 Combination=Al-Mg-Ti Element_Counts=Al:2/Mg:3/Ti:1 Total_Atoms=6 Num_Element_Types=3 Allocation_ID=231 Min_Distance=2.195 comment="initial_cell='a=7.649, b=11.681, c=9.810 | ¦Á=70.47, ¦Â=63.91, ¦Ã=100.76' final_cell='a=7.649, b=11.681, c=9.810 | ¦Á=70.47, ¦Â=63.91, ¦Ã=100.76' volume_change=0.00% optimizer_steps=2000 optimization_time=12.7s a_change=0.00% b_change=0.00% c_change=0.00% alpha_change=0.00¡ã beta_change=0.00¡ã gamma_change=0.00¡ã" energy=-19.75637137591802 free_energy=-19.75637137591802 stress="-1.2032605544933975e-05 -2.366656397382385e-05 -2.1849669808282764e-11 -2.366656397382385e-05 -4.655728944364909e-05 1.4990430879339936e-10 -2.1849669808282764e-11 1.4990430879339936e-10 -4.510359225374746e-12" pbc="T T T"
Mg       8.34975337      11.44010620       8.62681092     -11.19633573      -0.00000578      -0.00000176      -0.00000023
Al       2.17214224       5.82616059       2.44745356       2.30397709      -0.00000000      -0.00000000      -0.00000000
Mg       6.85525894      10.79371866       7.46402712      -4.38040983      -0.00000207      -0.00000363      -0.00000001
Mg       7.30433923       5.44838980       3.88191582      -7.15208292       0.00000546       0.00000608       0.00000011
Ti       4.71020613       4.69781882       3.14668437       2.30397709      -0.00000000      -0.00000000      -0.00000000
Al       4.40598854       4.53347740       0.31775375      -1.63549707       0.00000239      -0.00000069       0.00000013
6
Lattice="7.342697510217465 0.0 0.0 1.0403475424486932 21.14764397908509 0.0 -9.407302550092412 8.96971630072493 19.5748356534158" Properties=species:S:1:pos:R:3:energies:R:1:forces:R:3 Combination=Al-Mg-Ti Element_Counts=Al:3/Mg:1/Ti:2 Total_Atoms=6 Num_Element_Types=3 Allocation_ID=312 Min_Distance=2.195 comment="initial_cell='a=7.343, b=21.173, c=23.497 | ¦Á=68.80, ¦Â=113.60, ¦Ã=87.18' final_cell='a=7.343, b=21.173, c=23.497 | ¦Á=68.80, ¦Â=113.60, ¦Ã=87.18' volume_change=0.00% optimizer_steps=96 optimization_time=0.5s a_change=0.00% b_change=0.00% c_change=0.00% alpha_change=0.00¡ã beta_change=0.00¡ã gamma_change=0.00¡ã" energy=-19.75637137591802 free_energy=-19.75637137591802 stress="-1.2032605544933975e-05 -2.366656397382385e-05 -2.1849669808282764e-11 -2.366656397382385e-05 -4.655728944364909e-05 1.4990430879339936e-10 -2.1849669808282764e-11 1.4990430879339936e-10 -4.510359225374746e-12" pbc="T T T"
Mg      -4.71928957      30.18722780      20.84448351     -11.19633573      -0.00000578      -0.00000176      -0.00000023
Ti       5.73719901      21.68166673       4.59579965       2.30397709      -0.00000000      -0.00000000      -0.00000000
Al      -0.53827515       4.72206155       1.86430557      -4.38040983      -0.00000207      -0.00000363      -0.00000001
Ti       0.42897431      17.96878222       8.02725562      -7.15208292       0.00000546       0.00000608       0.00000011
Al       1.99380127      12.53288382      11.31769206       2.30397709      -0.00000000      -0.00000000      -0.00000000
Al       5.29240521       2.22722143       2.35011854      -1.63549707       0.00000239      -0.00000069       0.00000013
6
Lattice="9.158654639206063 0.0 0.0 1.9611360241323652 14.190340047933635 0.0 -2.716626245256342 -1.7222810582602293 17.191795500543478" Properties=species:S:1:pos:R:3:energies:R:1:forces:R:3 Combination=Al-Mg-Ti Element_Counts=Al:3/Mg:2/Ti:1 Total_Atoms=6 Num_Element_Types=3 Allocation_ID=321 Min_Distance=2.195 comment="initial_cell='a=9.159, b=14.325, c=17.490 | ¦Á=96.82, ¦Â=98.94, ¦Ã=82.13' final_cell='a=9.159, b=14.325, c=17.490 | ¦Á=96.82, ¦Â=98.94, ¦Ã=82.13' volume_change=0.00% optimizer_steps=26 optimization_time=0.1s a_change=0.00% b_change=0.00% c_change=0.00% alpha_change=0.00¡ã beta_change=0.00¡ã gamma_change=0.00¡ã" energy=-19.75637137591802 free_energy=-19.75637137591802 stress="-1.2032605544933975e-05 -2.366656397382385e-05 -2.1849669808282764e-11 -2.366656397382385e-05 -4.655728944364909e-05 1.4990430879339936e-10 -2.1849669808282764e-11 1.4990430879339936e-10 -4.510359225374746e-12" pbc="T T T"
Al      -0.28169398       9.88990368      10.39168566     -11.19633573      -0.00000578      -0.00000176      -0.00000023
Mg       7.16912127       0.83075492      13.14668561       2.30397709      -0.00000000      -0.00000000      -0.00000000
Mg       3.81119882      12.21756075      16.78697973      -4.38040983      -0.00000207      -0.00000363      -0.00000001
Al       1.34222878       4.33525003       8.41041746      -7.15208292       0.00000546       0.00000608       0.00000011
Ti       7.84958092       4.09083978       9.42211719       2.30397709      -0.00000000      -0.00000000      -0.00000000
Al       7.81968219       9.76603184      13.18514184      -1.63549707       0.00000239      -0.00000069       0.00000013
6
Lattice="10.090012767039676 0.0 0.0 -5.854109918038485 10.83282621120002 0.0 -4.619053774523327 1.8800606475545918 9.10424980103314" Properties=species:S:1:pos:R:3:energies:R:1:forces:R:3 Combination=Al-Mg-Ti Element_Counts=Al:4/Mg:1/Ti:1 Total_Atoms=6 Num_Element_Types=3 Allocation_ID=411 Min_Distance=2.195 comment="initial_cell='a=10.090, b=12.313, c=10.381 | ¦Á=68.23, ¦Â=116.42, ¦Ã=118.39' final_cell='a=10.090, b=12.313, c=10.381 | ¦Á=68.23, ¦Â=116.42, ¦Ã=118.39' volume_change=0.00% optimizer_steps=168 optimization_time=1.0s a_change=0.00% b_change=0.00% c_change=0.00% alpha_change=0.00¡ã beta_change=0.00¡ã gamma_change=0.00¡ã" energy=-19.75637137591802 free_energy=-19.75637137591802 stress="-1.2032605544933975e-05 -2.366656397382385e-05 -2.1849669808282764e-11 -2.366656397382385e-05 -4.655728944364909e-05 1.4990430879339936e-10 -2.1849669808282764e-11 1.4990430879339936e-10 -4.510359225374746e-12" pbc="T T T"
Mg      -1.11694214       7.00586513       8.79152808     -11.19633573      -0.00000578      -0.00000176      -0.00000023
Al      -5.24530757       8.38045511       3.74566209       2.30397709      -0.00000000      -0.00000000      -0.00000000
Al       4.20888668       8.35269564       0.70012198      -4.38040983      -0.00000207      -0.00000363      -0.00000001
Al       3.78892577       5.96417153       2.40097744      -7.15208292       0.00000546       0.00000608       0.00000011
Ti       4.61727427       5.17838887       5.02535717       2.30397709      -0.00000000      -0.00000000      -0.00000000
Al       3.73153532       3.01014496       2.42651203      -1.63549707       0.00000239      -0.00000069       0.00000013
6
Lattice="6.981965101239875 0.0 0.0 7.8370073298251945 15.056935446273904 0.0 2.1870454006972726 1.135581329914374 13.245543711649297" Properties=species:S:1:pos:R:3:energies:R:1:forces:R:3 Combination=Al-Mg-V Element_Counts=Al:1/Mg:1/V:4 Total_Atoms=6 Num_Element_Types=3 Allocation_ID=114 Min_Distance=2.17 comment="initial_cell='a=6.982, b=16.974, c=13.473 | ¦Á=81.39, ¦Â=80.66, ¦Ã=62.50' final_cell='a=6.982, b=16.974, c=13.473 | ¦Á=81.39, ¦Â=80.66, ¦Ã=62.50' volume_change=0.00% optimizer_steps=300 optimization_time=1.6s a_change=0.00% b_change=0.00% c_change=0.00% alpha_change=0.00¡ã beta_change=0.00¡ã gamma_change=0.00¡ã" energy=-19.75637137591802 free_energy=-19.75637137591802 stress="-1.2032605544933975e-05 -2.366656397382385e-05 -2.1849669808282764e-11 -2.366656397382385e-05 -4.655728944364909e-05 1.4990430879339936e-10 -2.1849669808282764e-11 1.4990430879339936e-10 -4.510359225374746e-12" pbc="T T T"
V       10.56723946      13.88681160      11.50404933     -11.19633573      -0.00000578      -0.00000176      -0.00000023
Al      14.93805118      17.51867568       6.72124830       2.30397709      -0.00000000      -0.00000000      -0.00000000
V        9.06005941      11.57376126      13.48052749      -4.38040983      -0.00000207      -0.00000363      -0.00000001
V        6.30152200       4.75022733       5.12330990      -7.15208292       0.00000546       0.00000608       0.00000011
Mg       3.63289425       0.21518060      10.32032087       2.30397709      -0.00000000      -0.00000000      -0.00000000
V        7.43560064       4.37813496       8.87654832      -1.63549707       0.00000239      -0.00000069       0.00000013
6
Lattice="7.391274675518933 0.0 0.0 -3.1492394491907887 6.231827035492041 0.0 -0.9375460389354187 -0.8676932017388745 20.153465131200203" Properties=species:S:1:pos:R:3:energies:R:1:forces:R:3 Combination=Al-Mg-V Element_Counts=Al:1/Mg:2/V:3 Total_Atoms=6 Num_Element_Types=3 Allocation_ID=123 Min_Distance=2.17 comment="initial_cell='a=7.391, b=6.982, c=20.194 | ¦Á=91.00, ¦Â=92.66, ¦Ã=116.81' final_cell='a=7.391, b=6.982, c=20.194 | ¦Á=91.00, ¦Â=92.66, ¦Ã=116.81' volume_change=0.00% optimizer_steps=101 optimization_time=0.7s a_change=0.00% b_change=0.00% c_change=0.00% alpha_change=0.00¡ã beta_change=0.00¡ã gamma_change=0.00¡ã" energy=-19.75637137591802 free_energy=-19.75637137591802 stress="-1.2032605544933975e-05 -2.366656397382385e-05 -2.1849669808282764e-11 -2.366656397382385e-05 -4.655728944364909e-05 1.4990430879339936e-10 -2.1849669808282764e-11 1.4990430879339936e-10 -4.510359225374746e-12" pbc="T T T"
V       -0.59873235       0.81506439      15.96915464     -11.19633573      -0.00000578      -0.00000176      -0.00000023
V        0.84176472       0.09396441       5.07370216       2.30397709      -0.00000000      -0.00000000      -0.00000000
Mg       2.62281122      -0.04910713      15.32909198      -4.38040983      -0.00000207      -0.00000363      -0.00000001
Mg      -2.34681234       3.69207433      16.40243968      -7.15208292       0.00000546       0.00000608       0.00000011
Al       4.56305122       2.13833442      14.06397613       2.30397709      -0.00000000      -0.00000000      -0.00000000
V        2.50838962       4.88887888      14.60225284      -1.63549707       0.00000239      -0.00000069       0.00000013
6
Lattice="9.449013503308286 0.0 0.0 -0.2331638256048216 20.74182858915444 0.0 7.821435360665498 10.06049313571148 16.803450086883537" Properties=species:S:1:pos:R:3:energies:R:1:forces:R:3 Combination=Al-Mg-V Element_Counts=Al:1/Mg:3/V:2 Total_Atoms=6 Num_Element_Types=3 Allocation_ID=132 Min_Distance=2.17 comment="initial_cell='a=9.449, b=20.743, c=21.089 | ¦Á=61.78, ¦Â=68.23, ¦Ã=90.64' final_cell='a=9.449, b=20.743, c=21.089 | ¦Á=61.78, ¦Â=68.23, ¦Ã=90.64' volume_change=0.00% optimizer_steps=7 optimization_time=0.0s a_change=0.00% b_change=0.00% c_change=0.00% alpha_change=0.00¡ã beta_change=0.00¡ã gamma_change=0.00¡ã" energy=-19.75637137591802 free_energy=-19.75637137591802 stress="-1.2032605544933975e-05 -2.366656397382385e-05 -2.1849669808282764e-11 -2.366656397382385e-05 -4.655728944364909e-05 1.4990430879339936e-10 -2.1849669808282764e-11 1.4990430879339936e-10 -4.510359225374746e-12" pbc="T T T"
Mg      11.43413943      22.12873433       8.81569347     -11.19633573      -0.00000578      -0.00000176      -0.00000023
Al      12.24725794      29.13934377      14.26101904       2.30397709      -0.00000000      -0.00000000      -0.00000000
Mg      13.68177604      14.59691691      10.59669608      -4.38040983      -0.00000207      -0.00000363      -0.00000001
V       11.64879086       7.24285043       8.08132325      -7.15208292       0.00000546       0.00000608       0.00000011
V       11.70724614      14.75928113      12.14524219       2.30397709      -0.00000000      -0.00000000      -0.00000000
Mg       3.24022293       8.82427630       3.06146317      -1.63549707       0.00000239      -0.00000069       0.00000013
6
Lattice="11.874845874993351 0.0 0.0 -1.7240187598512744 17.076576169834983 0.0 0.24744970904636185 7.1273386490443755 13.66233191814146" Properties=species:S:1:pos:R:3:energies:R:1:forces:R:3 Combination=Al-Mg-V Element_Counts=Al:1/Mg:4/V:1 Total_Atoms=6 Num_Element_Types=3 Allocation_ID=141 Min_Distance=2.17 comment="initial_cell='a=11.875, b=17.163, c=15.412 | ¦Á=62.71, ¦Â=89.08, ¦Ã=95.76' final_cell='a=11.875, b=17.163, c=15.412 | ¦Á=62.71, ¦Â=89.08, ¦Ã=95.76' volume_change=0.00% optimizer_steps=45 optimization_time=0.2s a_change=0.00% b_change=0.00% c_change=0.00% alpha_change=0.00¡ã beta_change=0.00¡ã gamma_change=0.00¡ã" energy=-19.75637137591802 free_energy=-19.75637137591802 stress="-1.2032605544933975e-05 -2.366656397382385e-05 -2.1849669808282764e-11 -2.366656397382385e-05 -4.655728944364909e-05 1.4990430879339936e-10 -2.1849669808282764e-11 1.4990430879339936e-10 -4.510359225374746e-12" pbc="T T T"
Mg       9.42665396       7.97655063       2.67848739     -11.19633573      -0.00000578      -0.00000176      -0.00000023
Mg       4.23535225      12.34715920      12.79578697       2.30397709      -0.00000000      -0.00000000      -0.00000000
Mg       2.67623121      15.24014058      11.99927549      -4.38040983      -0.00000207      -0.00000363      -0.00000001
Al       0.38717163      17.34285104       4.71293990      -7.15208292       0.00000546       0.00000608       0.00000011
V        3.27177722       2.87873938       4.19106911       2.30397709      -0.00000000      -0.00000000      -0.00000000
Mg      10.94306166      11.82458545      12.78655004      -1.63549707       0.00000239      -0.00000069       0.00000013
6
Lattice="10.83110900113865 0.0 0.0 -4.047037289453537 9.399566960660088 0.0 1.2834871591459487 -1.4773806435066779 12.428690365608592" Properties=species:S:1:pos:R:3:energies:R:1:forces:R:3 Combination=Al-Mg-V Element_Counts=Al:2/Mg:1/V:3 Total_Atoms=6 Num_Element_Types=3 Allocation_ID=213 Min_Distance=2.17 comment="initial_cell='a=10.831, b=10.234, c=12.582 | ¦Á=98.52, ¦Â=84.15, ¦Ã=113.29' final_cell='a=10.831, b=10.234, c=12.582 | ¦Á=98.52, ¦Â=84.15, ¦Ã=113.29' volume_change=0.00% optimizer_steps=133 optimization_time=0.8s a_change=0.00% b_change=0.00% c_change=0.00% alpha_change=0.00¡ã beta_change=0.00¡ã gamma_change=0.00¡ã" energy=-19.75637137591802 free_energy=-19.75637137591802 stress="-1.2032605544933975e-05 -2.366656397382385e-05 -2.1849669808282764e-11 -2.366656397382385e-05 -4.655728944364909e-05 1.4990430879339936e-10 -2.1849669808282764e-11 1.4990430879339936e-10 -4.510359225374746e-12" pbc="T T T"
Al       8.51412041       5.84205657       0.97778840     -11.19633573      -0.00000578      -0.00000176      -0.00000023
Mg      -2.53587981       5.18492903       3.67471059       2.30397709      -0.00000000      -0.00000000      -0.00000000
Al       0.03620133       4.15599319       1.77132064      -4.38040983      -0.00000207      -0.00000363      -0.00000001
V       -3.07869238       8.28520976       2.46300589      -7.15208292       0.00000546       0.00000608       0.00000011
V        1.93681191       7.83062575       8.02471362       2.30397709      -0.00000000      -0.00000000      -0.00000000
V        5.72519201       5.00191852       1.49846827      -1.63549707       0.00000239      -0.00000069       0.00000013
6
Lattice="9.227034629324413 0.0 0.0 0.3163852587708733 20.891290051095655 0.0 0.0019439569555378077 -4.587062162688959 8.394018689651231" Properties=species:S:1:pos:R:3:energies:R:1:forces:R:3 Combination=Al-Mg-V Element_Counts=Al:2/Mg:2/V:2 Total_Atoms=6 Num_Element_Types=3 Allocation_ID=222 Min_Distance=2.17 comment="initial_cell='a=9.227, b=20.894, c=9.566 | ¦Á=118.65, ¦Â=89.99, ¦Ã=89.13' final_cell='a=9.227, b=20.894, c=9.566 | ¦Á=118.65, ¦Â=89.99, ¦Ã=89.13' volume_change=0.00% optimizer_steps=30 optimization_time=0.2s a_change=0.00% b_change=0.00% c_change=0.00% alpha_change=0.00¡ã beta_change=0.00¡ã gamma_change=0.00¡ã" energy=-19.75637137591802 free_energy=-19.75637137591802 stress="-1.2032605544933975e-05 -2.366656397382385e-05 -2.1849669808282764e-11 -2.366656397382385e-05 -4.655728944364909e-05 1.4990430879339936e-10 -2.1849669808282764e-11 1.4990430879339936e-10 -4.510359225374746e-12" pbc="T T T"
V        5.11265988      10.46236025       2.10308490     -11.19633573      -0.00000578      -0.00000176      -0.00000023
V        0.39112493      14.91136456      -0.11028276       2.30397709      -0.00000000      -0.00000000      -0.00000000
Al       0.98602701      16.55911317       6.50434803      -4.38040983      -0.00000207      -0.00000363      -0.00000001
Mg       7.36735367       8.09980025       9.39041978      -7.15208292       0.00000546       0.00000608       0.00000011
Al       7.61438529       1.67553581       6.11588776       2.30397709      -0.00000000      -0.00000000      -0.00000000
Mg       0.31840527       0.26841970       4.39121043      -1.63549707       0.00000239      -0.00000069       0.00000013
6
Lattice="10.86643777358157 0.0 0.0 -0.25628608272387715 24.061489737092103 0.0 -2.402202938606025 3.5306753028344957 6.289152065174302" Properties=species:S:1:pos:R:3:energies:R:1:forces:R:3 Combination=Al-Mg-V Element_Counts=Al:2/Mg:3/V:1 Total_Atoms=6 Num_Element_Types=3 Allocation_ID=231 Min_Distance=2.17 comment="initial_cell='a=10.866, b=24.063, c=7.602 | ¦Á=62.11, ¦Â=108.42, ¦Ã=90.61' final_cell='a=10.866, b=24.063, c=7.602 | ¦Á=62.11, ¦Â=108.42, ¦Ã=90.61' volume_change=0.00% optimizer_steps=2000 optimization_time=10.0s a_change=0.00% b_change=0.00% c_change=0.00% alpha_change=0.00¡ã beta_change=0.00¡ã gamma_change=0.00¡ã" energy=-19.75637137591802 free_energy=-19.75637137591802 stress="-1.2032605544933975e-05 -2.366656397382385e-05 -2.1849669808282764e-11 -2.366656397382385e-05 -4.655728944364909e-05 1.4990430879339936e-10 -2.1849669808282764e-11 1.4990430879339936e-10 -4.510359225374746e-12" pbc="T T T"
Mg       9.67228900      18.26729850       1.06601186     -11.19633573      -0.00000578      -0.00000176      -0.00000023
Mg       4.70349283      11.54803791       0.20316913       2.30397709      -0.00000000      -0.00000000      -0.00000000
Al      -2.67320955       4.60118203       3.32732003      -4.38040983      -0.00000207      -0.00000363      -0.00000001
Mg      10.56317962      24.19379965      -0.01775531      -7.15208292       0.00000546       0.00000608       0.00000011
V        4.73773726       7.36838010       6.69081505       2.30397709      -0.00000000      -0.00000000      -0.00000000
Al       8.49164358       6.34788469       0.92766516      -1.63549707       0.00000239      -0.00000069       0.00000013
6
Lattice="23.834110362488268 0.0 0.0 -7.25610072351985 22.731304982736322 0.0 -4.707116516156377 -4.717571852437891 18.7684489280106" Properties=species:S:1:pos:R:3:energies:R:1:forces:R:3 Combination=Al-Mg-V Element_Counts=Al:3/Mg:1/V:2 Total_Atoms=6 Num_Element_Types=3 Allocation_ID=312 Min_Distance=2.17 comment="initial_cell='a=23.834, b=23.861, c=19.917 | ¦Á=98.85, ¦Â=103.67, ¦Ã=107.70' final_cell='a=23.834, b=23.861, c=19.917 | ¦Á=98.85, ¦Â=103.67, ¦Ã=107.70' volume_change=0.00% optimizer_steps=18 optimization_time=0.1s a_change=0.00% b_change=0.00% c_change=0.00% alpha_change=0.00¡ã beta_change=0.00¡ã gamma_change=0.00¡ã" energy=-19.75637137591802 free_energy=-19.75637137591802 stress="-1.2032605544933975e-05 -2.366656397382385e-05 -2.1849669808282764e-11 -2.366656397382385e-05 -4.655728944364909e-05 1.4990430879339936e-10 -2.1849669808282764e-11 1.4990430879339936e-10 -4.510359225374746e-12" pbc="T T T"
V       -2.78238903      10.96108817       6.35757437     -11.19633573      -0.00000578      -0.00000176      -0.00000023
Al       0.46320916       8.14633526      10.05907119       2.30397709      -0.00000000      -0.00000000      -0.00000000
Al      16.37089720       8.74345185       1.76372681      -4.38040983      -0.00000207      -0.00000363      -0.00000001
Mg      -3.80425872      12.53475437      18.10660806      -7.15208292       0.00000546       0.00000608       0.00000011
V       17.96663766       7.00535213       3.45987038       2.30397709      -0.00000000      -0.00000000      -0.00000000
Al      -1.11998167       0.30992006      13.71009856      -1.63549707       0.00000239      -0.00000069       0.00000013
6