6
Lattice="10.344753347041507 0.0 0.0 5.403642138459968 10.654367958462895 0.0 4.97363597381577 -2.117775720857892 15.085617513359816" Properties=species:S:1:pos:R:3:momenta:R:3 Combination=Al-Mg-Ti Element_Counts=Al:1/Mg:1/Ti:4 Total_Atoms=6 Num_Element_Types=3 Allocation_ID=114 Min_Distance=2.195 comment="initial_cell='a=14.437, b=16.672, c=22.364 | ж┴=88.71, ж┬=71.92, ж├=63.11' final_cell='a=14.437, b=16.672, c=22.364 | ж┴=88.71, ж┬=71.92, ж├=63.11' volume_change=0.00% optimizer_steps=0 optimization_time=0.1s a_change=0.00% b_change=0.00% c_change=0.00% alpha_change=0.00бу beta_change=0.00бу gamma_change=0.00бу" Temp="'a=14.437, 16.672, 22.364 88.71, 71.92, 63.11' 'a=14.437, 0.00% 0 0.1s 0.00% 0.00% 0.00% 0.00бу 0.00бу 0.00бу 4000.0" pbc="T T T"
Mg      12.73593644      10.36576415      10.12756185      -0.10913252      -3.73481889       3.92828894
Al      14.15021782      -1.80923769      13.69214608       6.44819467      -0.69599385      -3.70737347
Ti      -1.05322339      -2.04360175       7.83700319      -1.57027345       4.77147761     -10.98924324
Ti      10.23049896      -4.23652545       8.81851786      -1.23804710      -2.15431027       5.88480544
Ti      17.67694028       0.61785836      -0.65333622      -3.90451641      -1.23060153       2.74886767
Ti      15.57250603       6.75614809      18.57339063       0.37377481       3.04424693       2.13465467
6
Lattice="8.329022875844249 0.0 0.0 -2.2679849941005106 7.146163505487127 0.0 -2.748444700844808 0.6123157553310479 13.526385808969584" Properties=species:S:1:pos:R:3:momenta:R:3 Combination=Al-Mg-Ti Element_Counts=Al:1/Mg:2/Ti:3 Total_Atoms=6 Num_Element_Types=3 Allocation_ID=123 Min_Distance=2.195 comment="initial_cell='a=11.624, b=10.463, c=19.282 | ж┴=84.12, ж┬=101.47, ж├=107.61' final_cell='a=11.624, b=10.463, c=19.282 | ж┴=84.12, ж┬=101.47, ж├=107.61' volume_change=0.00% optimizer_steps=53 optimization_time=0.6s a_change=0.00% b_change=0.00% c_change=0.00% alpha_change=0.00бу beta_change=0.00бу gamma_change=0.00бу" Temp="'a=11.624, 10.463, 19.282 84.12, 101.47, 107.61' 'a=11.624, 0.00% 53 0.6s 0.00% 0.00% 0.00% 0.00бу 0.00бу 0.00бу 4000.0" pbc="T T T"
Ti       1.40410302       3.32209263      14.95390533       2.44246269       2.76429975       3.07117066
Mg       5.03068236       5.05676558      13.82566108       2.06518613       3.36752417       1.36886359
Ti       4.58353814       2.17405715       6.06820308       4.77115321       0.12088112       1.43135890
Ti      -8.03361088       9.43876413       4.42935042      -4.56735309      -1.73743441      -2.86457082
Al       3.50126797       1.92905478       9.17844504      -5.69628273       3.85333889      -5.30713836
Mg       3.04142649       3.50998959      11.90390327       0.98483379      -8.36860951       2.30031603
6
Lattice="12.878935447333676 0.0 0.0 -4.468375327581872 12.46376288830149 0.0 -0.4608041353265738 -1.8686261054011466 8.08325427802244" Properties=species:S:1:pos:R:3:momenta:R:3 Combination=Al-Mg-Ti Element_Counts=Al:1/Mg:3/Ti:2 Total_Atoms=6 Num_Element_Types=3 Allocation_ID=132 Min_Distance=2.195 comment="initial_cell='a=17.978, b=18.482, c=11.599 | ж┴=101.13, ж┬=93.18, ж├=109.72' final_cell='a=17.978, b=18.482, c=11.599 | ж┴=101.13, ж┬=93.18, ж├=109.72' volume_change=0.00% optimizer_steps=2000 optimization_time=11.9s a_change=0.00% b_change=0.00% c_change=0.00% alpha_change=0.00бу beta_change=0.00бу gamma_change=0.00бу" Temp="'a=17.978, 18.482, 11.599 101.13, 93.18, 109.72' 'a=17.978, 0.00% 2000 11.9s 0.00% 0.00% 0.00% 0.00бу 0.00бу 0.00бу 4000.0" pbc="T T T"
Al       9.46588303       5.43061844       2.39639222       1.74184171       0.61098406      -2.70125915
Mg      10.88641090       4.47187320      -0.03133446       1.60047028      -3.17677179       1.45012022
Ti      -2.91226323       7.22246299       4.68148141      -7.85406814       2.94478379       0.39789199
Mg      -4.75154004       8.60036561       2.01795898       1.20334299       0.71658764       1.46554041
Ti      11.36963810       7.55249286       1.70179398       3.43701727       1.95372116      -2.03964738
Mg      -6.85275559      10.97122454       1.16888652      -0.12860411      -3.04930486       1.42735391
6
Lattice="16.17326564243417 0.0 0.0 -5.681078038152802 16.286929708454863 0.0 -0.742865864701396 0.8133811821640383 5.278020571043605" Properties=species:S:1:pos:R:3:momenta:R:3 Combination=Al-Mg-Ti Element_Counts=Al:1/Mg:4/Ti:1 Total_Atoms=6 Num_Element_Types=3 Allocation_ID=141 Min_Distance=2.195 comment="initial_cell='a=22.538, b=24.038, c=7.514 | ж┴=79.17, ж┬=97.92, ж├=109.23' final_cell='a=22.538, b=24.038, c=7.514 | ж┴=79.17, ж┬=97.92, ж├=109.23' volume_change=0.00% optimizer_steps=13 optimization_time=0.1s a_change=0.00% b_change=0.00% c_change=0.00% alpha_change=0.00бу beta_change=0.00бу gamma_change=0.00бу" Temp="'a=22.538, 24.038, 7.514 79.17, 97.92, 109.23' 'a=22.538, 0.00% 13 0.1s 0.00% 0.00% 0.00% 0.00бу 0.00бу 0.00бу 4000.0" pbc="T T T"
Al       7.32096326       7.00330545      -0.68526849      -3.22612124      -2.80593285       8.00139280
Mg      11.88936578      15.45253758       5.49984478       3.26388784      -5.12521269       2.56632037
Ti      -4.22497513      14.22265729       8.48293907      -2.46541583       5.71652713      -1.08446536
Mg      -8.42809556      20.30469926       5.63358444      -0.96059827       0.45835837      -0.22825908
Mg      -0.28553930       4.87873486      -6.60439173      -0.64461955      -0.70985261      -0.94243708
Mg       7.79777222       8.64269989       1.97131972       4.03286704       2.46611266      -8.31255165
6
Lattice="11.495386123798216 0.0 0.0 -3.630961307208398 14.759370893407706 0.0 -4.298289668859511 -6.9369820139247995 12.188347842069787" Properties=species:S:1:pos:R:3:momenta:R:3 Combination=Al-Mg-Ti Element_Counts=Al:2/Mg:1/Ti:3 Total_Atoms=6 Num_Element_Types=3 Allocation_ID=213 Min_Distance=2.195 comment="initial_cell='a=16.042, b=21.211, c=20.469 | ж┴=112.91, ж┬=107.04, ж├=103.82' final_cell='a=16.042, b=21.211, c=20.469 | ж┴=112.91, ж┬=107.04, ж├=103.82' volume_change=0.00% optimizer_steps=0 optimization_time=0.0s a_change=0.00% b_change=0.00% c_change=0.00% alpha_change=0.00бу beta_change=0.00бу gamma_change=0.00бу" Temp="'a=16.042, 21.211, 20.469 112.91, 107.04, 103.82' 'a=16.042, 0.00% 0 0.0s 0.00% 0.00% 0.00% 0.00бу 0.00бу 0.00бу 4000.0" pbc="T T T"
Ti       5.73030246       2.18105940      -5.06113410       1.57122411      -1.26078689      -2.43304049
Al       1.53540452       5.31717090       6.90617835       0.21532747       3.71205859       2.32185646
Al      -1.35628956       2.33236543      12.03666129       0.86901679       0.31533806       5.20718152
Ti      -0.83581184      18.09348318       5.97365495       0.13071410      -1.78411632      -0.97694761
Ti       6.80394546      -3.74657870       1.06713081       2.04311804      -4.44642474      -4.01916297
Mg       1.85534043      13.07927732       0.88103045      -4.82940051       3.46393130      -0.09988691
6
Lattice="12.703300673341197 0.0 0.0 -0.89038523544899 6.515452091046154 0.0 -1.13956832025194 4.18690634963878 11.37722175553593" Properties=species:S:1:pos:R:3:momenta:R:3 Combination=Al-Mg-Ti Element_Counts=Al:2/Mg:2/Ti:2 Total_Atoms=6 Num_Element_Types=3 Allocation_ID=222 Min_Distance=2.195 comment="initial_cell='a=17.724, b=9.175, c=16.989 | ж┴=69.31, ж┬=95.37, ж├=97.78' final_cell='a=17.724, b=9.175, c=16.989 | ж┴=69.31, ж┬=95.37, ж├=97.78' volume_change=0.00% optimizer_steps=15 optimization_time=0.1s a_change=0.00% b_change=0.00% c_change=0.00% alpha_change=0.00бу beta_change=0.00бу gamma_change=0.00бу" Temp="'a=17.724, 9.175, 16.989 69.31, 95.37, 97.78' 'a=17.724, 0.00% 15 0.1s 0.00% 0.00% 0.00% 0.00бу 0.00бу 0.00бу 4000.0" pbc="T T T"
Al       9.06113730       4.72579939       8.15104861      -6.36432945       4.10400939     -11.85316324
Mg      -0.97004026       3.35988067       8.27313323       0.05791776       1.54016407       9.58611911
Ti       1.68357421       5.93283038       4.02249976      -1.04785343       1.91121907      -1.96063467
Mg       5.50835715       3.88466315       7.51492604      -4.78870299       0.19887775      -1.97410152
Ti       0.11169018       7.78881061       1.61622610       3.37687815       1.82855723       4.28174616
Al      10.53401398       6.67609989      -0.52587041       8.76608996      -9.58282751       1.92003416
6
Lattice="5.1768030425469425 0.0 0.0 -1.4759505226841563 7.766611148002054 0.0 2.9204651260596206 2.8138692910294303 5.257093511807922" Properties=species:S:1:pos:R:3:momenta:R:3 Combination=Al-Mg-Ti Element_Counts=Al:2/Mg:3/Ti:1 Total_Atoms=6 Num_Element_Types=3 Allocation_ID=231 Min_Distance=2.195 comment="initial_cell='a=7.649, b=11.681, c=9.810 | ж┴=70.47, ж┬=63.91, ж├=100.76' final_cell='a=7.649, b=11.681, c=9.810 | ж┴=70.47, ж┬=63.91, ж├=100.76' volume_change=0.00% optimizer_steps=2000 optimization_time=12.7s a_change=0.00% b_change=0.00% c_change=0.00% alpha_change=0.00бу beta_change=0.00бу gamma_change=0.00бу" Temp="'a=7.649, 11.681, 9.810 70.47, 63.91, 100.76' 'a=7.649, 0.00% 2000 12.7s 0.00% 0.00% 0.00% 0.00бу 0.00бу 0.00бу 4000.0" pbc="T T T"
Mg       2.98620709       5.62626841       5.93409056     -10.58185592       9.03075812      -2.63486195
Al       2.72452115       2.95378791       2.63284561      -8.85297910      -7.25965756       2.80735121
Mg       2.89708659       5.87239414       3.96369802       7.01317813      -3.36290567       0.36837247
Mg       5.47034629       4.08040512       4.43600037       0.21614994       2.44744477       8.92848888
Ti       4.76442735       4.63915758       1.39319152       3.73018832      -0.14372557       1.38362960
Al       2.42664261       4.31155823      -0.18983638       8.47531863      -0.71191408     -10.85298021
6
Lattice="5.244217321437592 0.0 0.0 0.743025106894658 15.103828083397213 0.0 -6.718775887546731 6.406248048103183 13.980514934067708" Properties=species:S:1:pos:R:3:momenta:R:3 Combination=Al-Mg-Ti Element_Counts=Al:3/Mg:1/Ti:2 Total_Atoms=6 Num_Element_Types=3 Allocation_ID=312 Min_Distance=2.195 comment="initial_cell='a=7.343, b=21.173, c=23.497 | ж┴=68.80, ж┬=113.60, ж├=87.18' final_cell='a=7.343, b=21.173, c=23.497 | ж┴=68.80, ж┬=113.60, ж├=87.18' volume_change=0.00% optimizer_steps=96 optimization_time=0.5s a_change=0.00% b_change=0.00% c_change=0.00% alpha_change=0.00бу beta_change=0.00бу gamma_change=0.00бу" Temp="'a=7.343, 21.173, 23.497 68.80, 113.60, 87.18' 'a=7.343, 0.00% 96 0.5s 0.00% 0.00% 0.00% 0.00бу 0.00бу 0.00бу 4000.0" pbc="T T T"
Mg      -3.92635114      23.62792144      15.47186138       8.32374544       0.03610642      -0.39034499
Ti       0.79535660      17.19885596       2.07976082      16.04853325      -7.34741423     -10.82825967
Al      -5.67337549       2.47521952      -0.84329064      -5.90851838      14.45141148      11.88116254
Ti       3.03163846      11.92738105      12.86717876       1.51819604       5.65256289     -16.59884716
Al       9.99092481       3.74550653       1.17627730     -15.53148085       5.68952415       7.51286532
Al       2.02606751       4.39815493      -0.28915199      -4.45047550     -18.48219071       8.42342394
6
Lattice="6.491489916079328 0.0 0.0 1.3900179913126154 10.057858163203225 0.0 -1.9254958912138536 -1.2207218814094218 12.185235880971089" Properties=species:S:1:pos:R:3:momenta:R:3 Combination=Al-Mg-Ti Element_Counts=Al:3/Mg:2/Ti:1 Total_Atoms=6 Num_Element_Types=3 Allocation_ID=321 Min_Distance=2.195 comment="initial_cell='a=9.159, b=14.325, c=17.490 | ж┴=96.82, ж┬=98.94, ж├=82.13' final_cell='a=9.159, b=14.325, c=17.490 | ж┴=96.82, ж┬=98.94, ж├=82.13' volume_change=0.00% optimizer_steps=26 optimization_time=0.1s a_change=0.00% b_change=0.00% c_change=0.00% alpha_change=0.00бу beta_change=0.00бу gamma_change=0.00бу" Temp="'a=9.159, 14.325, 17.490 96.82, 98.94, 82.13' 'a=9.159, 0.00% 26 0.1s 0.00% 0.00% 0.00% 0.00бу 0.00бу 0.00бу 4000.0" pbc="T T T"
Al       1.22426327       2.93785848       8.10745141      -1.24055666       2.20982356      -1.91840968
Mg       2.67992283       5.24682991       6.85758786       4.86454317       1.06152119      -6.32687262
Mg       3.70027588       5.47799139       8.66421913     -12.25063863       0.59175747       6.31938848
Al      -0.56146953       4.95131055       6.78683403      14.05461539      -6.13206489      -9.50619427
Ti       6.90068992       5.63510915       9.28445003      10.68831083      -5.54579377       7.34083031
Al       4.52266775       2.93227735       8.28382702     -16.11627410       7.81475644       4.09125778
6
Lattice="7.216141092388495 0.0 0.0 -4.186722466488078 7.747383890801435 0.0 -3.303439204673 1.3445753943264411 6.511146479339905" Properties=species:S:1:pos:R:3:momenta:R:3 Combination=Al-Mg-Ti Element_Counts=Al:4/Mg:1/Ti:1 Total_Atoms=6 Num_Element_Types=3 Allocation_ID=411 Min_Distance=2.195 comment="initial_cell='a=10.090, b=12.313, c=10.381 | ж┴=68.23, ж┬=116.42, ж├=118.39' final_cell='a=10.090, b=12.313, c=10.381 | ж┴=68.23, ж┬=116.42, ж├=118.39' volume_change=0.00% optimizer_steps=168 optimization_time=1.0s a_change=0.00% b_change=0.00% c_change=0.00% alpha_change=0.00бу beta_change=0.00бу gamma_change=0.00бу" Temp="'a=10.090, 12.313, 10.381 68.23, 116.42, 118.39' 'a=10.090, 0.00% 168 1.0s 0.00% 0.00% 0.00% 0.00бу 0.00бу 0.00бу 4000.0" pbc="T T T"
Mg      -0.31152976       6.29007364      11.72258623      -4.31575442       2.71276174      -2.89501943
Al      -5.67549941       3.12465241       0.53483578       6.25341393      -6.13466375      -6.14143066
Al       1.34466930       3.20387733       3.44656024      -5.65842176       6.95529224       5.34661322
Al       3.52508332       4.78902267       2.07311527       2.68082686      -3.50387498       1.42426459
Ti       2.98686148       5.00928871      -1.10582170      -1.53492559      -0.10936330       5.08675047
Al       5.56340892       3.79850284       4.01940133       2.57486098       0.07984805      -2.82117820
6
Lattice="4.949859308376782 0.0 0.0 5.556040902361911 10.674603925065703 0.0 1.5505043175540278 0.8050695949908632 9.39041901311933" Properties=species:S:1:pos:R:3:momenta:R:3 Combination=Al-Mg-V Element_Counts=Al:1/Mg:1/V:4 Total_Atoms=6 Num_Element_Types=3 Allocation_ID=114 Min_Distance=2.17 comment="initial_cell='a=6.982, b=16.974, c=13.473 | ж┴=81.39, ж┬=80.66, ж├=62.50' final_cell='a=6.982, b=16.974, c=13.473 | ж┴=81.39, ж┬=80.66, ж├=62.50' volume_change=0.00% optimizer_steps=300 optimization_time=1.6s a_change=0.00% b_change=0.00% c_change=0.00% alpha_change=0.00бу beta_change=0.00бу gamma_change=0.00бу" Temp="'a=6.982, 16.974, 13.473 81.39, 80.66, 62.50' 'a=6.982, 0.00% 300 1.6s 0.00% 0.00% 0.00% 0.00бу 0.00бу 0.00бу 4000.0" pbc="T T T"
V        9.26477035      11.10462299       7.77322311       8.45796608      -4.51160012       6.48168158
Al      10.26327261      12.31951490       5.45284999      -0.97462880       4.60702056      -2.40609359
V       10.46089087       9.76813059       8.65336313       6.10236481      -0.14425138      -2.70825364
V        2.17826616       3.06306181       5.45395325     -16.82290512       4.36380161      -3.62288860
Mg       1.94306240       1.31755803       7.08246678     -11.63169092      -3.66343044      -6.17283040
V        2.22474375       0.08328809       5.50483794      14.86889396      -0.65154023       8.42838466
6
Lattice="5.2601135953312905 0.0 0.0 -2.2412043888057784 4.434974960640768 0.0 -0.6672189686019154 -0.6175071293400062 14.34252149778457" Properties=species:S:1:pos:R:3:momenta:R:3 Combination=Al-Mg-V Element_Counts=Al:1/Mg:2/V:3 Total_Atoms=6 Num_Element_Types=3 Allocation_ID=123 Min_Distance=2.17 comment="initial_cell='a=7.391, b=6.982, c=20.194 | ж┴=91.00, ж┬=92.66, ж├=116.81' final_cell='a=7.391, b=6.982, c=20.194 | ж┴=91.00, ж┬=92.66, ж├=116.81' volume_change=0.00% optimizer_steps=101 optimization_time=0.7s a_change=0.00% b_change=0.00% c_change=0.00% alpha_change=0.00бу beta_change=0.00бу gamma_change=0.00бу" Temp="'a=7.391, 6.982, 20.194 91.00, 92.66, 116.81' 'a=7.391, 0.00% 101 0.7s 0.00% 0.00% 0.00% 0.00бу 0.00бу 0.00бу 4000.0" pbc="T T T"
V        0.77884599      -0.61032941      10.80977633       6.04674087       3.36307939      -2.32866024
V        0.12936272       5.45263129       4.16115155      -0.03481039       0.39915604       0.04078998
Mg       1.08215380       0.29871341       9.12170940     -13.05556834       6.74776368       2.65934283
Mg      -1.41122210       1.77602293      10.42867642       0.61285937      -6.34926549      -1.61435389
Al       3.51610006      -1.15724490       9.65513818       2.51498915      -7.88848050       4.14448883
V        1.15826365       0.94990029      12.03034273       3.91578935       3.72774688      -2.90160751
6
Lattice="6.766561028903595 0.0 0.0 -0.16697163731804085 14.853492266725123 0.0 5.601031227549609 7.20444951844158 12.033168379876265" Properties=species:S:1:pos:R:3:momenta:R:3 Combination=Al-Mg-V Element_Counts=Al:1/Mg:3/V:2 Total_Atoms=6 Num_Element_Types=3 Allocation_ID=132 Min_Distance=2.17 comment="initial_cell='a=9.449, b=20.743, c=21.089 | ж┴=61.78, ж┬=68.23, ж├=90.64' final_cell='a=9.449, b=20.743, c=21.089 | ж┴=61.78, ж┬=68.23, ж├=90.64' volume_change=0.00% optimizer_steps=7 optimization_time=0.0s a_change=0.00% b_change=0.00% c_change=0.00% alpha_change=0.00бу beta_change=0.00бу gamma_change=0.00бу" Temp="'a=9.449, 20.743, 21.089 61.78, 68.23, 90.64' 'a=9.449, 0.00% 7 0.0s 0.00% 0.00% 0.00% 0.00бу 0.00бу 0.00бу 4000.0" pbc="T T T"
Mg      12.56243381      17.74445922       6.33484683      -1.97069246      -3.47270321      -1.47388123
Al      10.01163176      14.92585234       9.06056100       5.56626765      -1.57897064      -1.64895388
Mg       9.09419779      11.57294355       9.31727232      -0.92407842      -6.69728188       2.62819406
V        6.55578338       4.56159866       4.84190383       4.34623112       5.01511818       3.75499418
V        4.63701427      12.97293910       9.09444718      -6.98231687       9.41414657      -2.63628567
Mg       8.86793543       6.16930292       2.86938458      -0.03541102      -2.68030902      -0.62406745
6
Lattice="8.495498465344072 0.0 0.0 -1.233396953756176 12.216918701207582 0.0 0.17703039227482836 5.0990383532011885 9.774301162764093" Properties=species:S:1:pos:R:3:momenta:R:3 Combination=Al-Mg-V Element_Counts=Al:1/Mg:4/V:1 Total_Atoms=6 Num_Element_Types=3 Allocation_ID=141 Min_Distance=2.17 comment="initial_cell='a=11.875, b=17.163, c=15.412 | ж┴=62.71, ж┬=89.08, ж├=95.76' final_cell='a=11.875, b=17.163, c=15.412 | ж┴=62.71, ж┬=89.08, ж├=95.76' volume_change=0.00% optimizer_steps=45 optimization_time=0.2s a_change=0.00% b_change=0.00% c_change=0.00% alpha_change=0.00бу beta_change=0.00бу gamma_change=0.00бу" Temp="'a=11.875, 17.163, 15.412 62.71, 89.08, 95.76' 'a=11.875, 0.00% 45 0.2s 0.00% 0.00% 0.00% 0.00бу 0.00бу 0.00бу 4000.0" pbc="T T T"
Mg       6.87050459       6.81931854      15.96215094     -13.02196422       6.87450750     -11.81233585
Mg       3.95335855      14.48998151      11.12839249       3.22145168       2.80776532      -5.84050188
Mg       4.88093378      14.00596646       9.45962137      17.42965981      -1.55872724       3.41104833
Al       2.51002533       9.89460412      -1.43741850      14.18683682      -2.71059756      -1.54089945
V       -1.07603317      -3.63235437      -1.79494093     -27.78596333      -4.03157865      19.30938041
Mg       8.49504739      13.30660867       7.63788486       5.96997924      -1.38136938      -3.52669156
6
Lattice="7.723614842965215 0.0 0.0 -2.8859239876148446 6.702788688320605 0.0 0.9152488883726267 -1.0535134551501681 8.862842888603735" Properties=species:S:1:pos:R:3:momenta:R:3 Combination=Al-Mg-V Element_Counts=Al:2/Mg:1/V:3 Total_Atoms=6 Num_Element_Types=3 Allocation_ID=213 Min_Distance=2.17 comment="initial_cell='a=10.831, b=10.234, c=12.582 | ж┴=98.52, ж┬=84.15, ж├=113.29' final_cell='a=10.831, b=10.234, c=12.582 | ж┴=98.52, ж┬=84.15, ж├=113.29' volume_change=0.00% optimizer_steps=133 optimization_time=0.8s a_change=0.00% b_change=0.00% c_change=0.00% alpha_change=0.00бу beta_change=0.00бу gamma_change=0.00бу" Temp="'a=10.831, 10.234, 12.582 98.52, 84.15, 113.29' 'a=10.831, 0.00% 133 0.8s 0.00% 0.00% 0.00% 0.00бу 0.00бу 0.00бу 4000.0" pbc="T T T"
Al       4.64634092       4.28196177      -0.94210354       1.08658935      -0.27961541       2.30145711
Mg      -0.89454747       6.25243136       0.82673056       3.96533158     -13.05195944     -14.35460784
Al      -2.71108172       7.17948394      -1.47193838      -5.87555261       7.29487479       1.99630159
V       -5.40025953       5.71167412       0.56310445      -2.36509542      -7.77332525      27.30889720
V        4.20406580       1.45537765       9.85454246     -10.41298272      10.33511308      -6.07541403
V        6.23295511       4.37844006       1.30239004      13.60170983       3.47491222     -11.17663403
6
Lattice="6.601748215219653 0.0 0.0 0.22636696417875554 14.947276383913868 0.0 0.001390860105900047 -3.2819460056421925 6.005742920570652" Properties=species:S:1:pos:R:3:momenta:R:3 Combination=Al-Mg-V Element_Counts=Al:2/Mg:2/V:2 Total_Atoms=6 Num_Element_Types=3 Allocation_ID=222 Min_Distance=2.17 comment="initial_cell='a=9.227, b=20.894, c=9.566 | ж┴=118.65, ж┬=89.99, ж├=89.13' final_cell='a=9.227, b=20.894, c=9.566 | ж┴=118.65, ж┬=89.99, ж├=89.13' volume_change=0.00% optimizer_steps=30 optimization_time=0.2s a_change=0.00% b_change=0.00% c_change=0.00% alpha_change=0.00бу beta_change=0.00бу gamma_change=0.00бу" Temp="'a=9.227, 20.894, 9.566 118.65, 89.99, 89.13' 'a=9.227, 0.00% 30 0.2s 0.00% 0.00% 0.00% 0.00бу 0.00бу 0.00бу 4000.0" pbc="T T T"
V        3.83295758       6.94236341       3.18880504      -0.64604889      -8.14209317      -0.67594582
V       -2.86273816      11.42173379      -1.14999370       1.12578976       7.41830137       7.92940193
Al      11.11633986      11.83964126       0.95190386       1.21019773       5.09958502      -0.97236937
Mg       3.96252393       5.38421350       6.34579720      -3.37354626      -5.05170003     -10.54894077
Al       4.59386508      -0.55043493       4.53082476      -3.64947784       2.73177871       7.61106187
Mg      -2.85282091       2.11430344       6.16722292       5.33308550      -2.05587190      -3.34320784
6
Lattice="7.7871905639913805 0.0 0.0 -0.18366171202137133 17.243130613768955 0.0 -1.721485223224137 2.5301798046084305 4.506980727069522" Properties=species:S:1:pos:R:3:momenta:R:3 Combination=Al-Mg-V Element_Counts=Al:2/Mg:3/V:1 Total_Atoms=6 Num_Element_Types=3 Allocation_ID=231 Min_Distance=2.17 comment="initial_cell='a=10.866, b=24.063, c=7.602 | ж┴=62.11, ж┬=108.42, ж├=90.61' final_cell='a=10.866, b=24.063, c=7.602 | ж┴=62.11, ж┬=108.42, ж├=90.61' volume_change=0.00% optimizer_steps=2000 optimization_time=10.0s a_change=0.00% b_change=0.00% c_change=0.00% alpha_change=0.00бу beta_change=0.00бу gamma_change=0.00бу" Temp="'a=10.866, 24.063, 7.602 62.11, 108.42, 90.61' 'a=10.866, 0.00% 2000 10.0s 0.00% 0.00% 0.00% 0.00бу 0.00бу 0.00бу 4000.0" pbc="T T T"
Mg      -0.12618308      16.26821705      -1.54072263       0.76633302       2.06698772       0.02190753
Mg       6.53159152       6.39717199      -3.31908431       0.09475340      -1.96706447       1.15250359
Al      -0.21219858       3.01880801       2.79337546       0.90782863      -5.47625234      -4.44927370
Mg       8.48350396      17.60598101       1.10372689       1.59936252       6.87756374       6.84565083
V        3.20010815       6.52786333       6.83131974       1.11645507       1.06961623     -11.51187984
Al       7.43729877       1.06085356       0.60225854      -4.48473264      -2.57085088       7.94109159
6
Lattice="17.07770176520217 0.0 0.0 -5.199167170492302 16.2875157211657 0.0 -3.372759914861105 -3.380251409704203 13.448035966656121" Properties=species:S:1:pos:R:3:momenta:R:3 Combination=Al-Mg-V Element_Counts=Al:3/Mg:1/V:2 Total_Atoms=6 Num_Element_Types=3 Allocation_ID=312 Min_Distance=2.17 comment="initial_cell='a=23.834, b=23.861, c=19.917 | ж┴=98.85, ж┬=103.67, ж├=107.70' final_cell='a=23.834, b=23.861, c=19.917 | ж┴=98.85, ж┬=103.67, ж├=107.70' volume_change=0.00% optimizer_steps=18 optimization_time=0.1s a_change=0.00% b_change=0.00% c_change=0.00% alpha_change=0.00бу beta_change=0.00бу gamma_change=0.00бу" Temp="'a=23.834, 23.861, 19.917 98.85, 103.67, 107.70' 'a=23.834, 0.00% 18 0.1s 0.00% 0.00% 0.00% 0.00бу 0.00бу 0.00бу 4000.0" pbc="T T T"
V       -4.38830538       8.92729697       6.34556632       7.99009550      -1.18302334       5.94993503
Al       1.58864481       6.58561126      12.25917958      -0.62863769       0.36298443      -2.35517387
Al      11.61816982       8.56169314       3.92388340       3.86042484      -1.96198253      -5.70005168
Mg       3.44184769       0.76924929       6.55908809       0.79136583      -0.96135774      -0.79161078
V       14.26073409       8.26863277       4.83839185     -12.12109721       4.54997464       1.16000997
Al      -5.60106867      -3.58678692       0.05588621       0.10784872      -0.80659546       1.73689132
6
Lattice="11.914612340331606 0.0 0.0 -4.696718070821355 13.743520948333293 0.0 -5.4998832145805565 -1.7768991266976066 13.115202169294765" Properties=species:S:1:pos:R:3:momenta:R:3 Combination=Al-Mg-V Element_Counts=Al:3/Mg:2/V:1 Total_Atoms=6 Num_Element_Types=3 Allocation_ID=321 Min_Distance=2.17 comment="initial_cell='a=16.627, b=20.268, c=20.000 | ж┴=89.61, ж┬=112.57, ж├=108.87' final_cell='a=16.627, b=20.268, c=20.000 | ж┴=89.61, ж┬=112.57, ж├=108.87' volume_change=0.00% optimizer_steps=18 optimization_time=0.1s a_change=0.00% b_change=0.00% c_change=0.00% alpha_change=0.00бу beta_change=0.00бу gamma_change=0.00бу" Temp="'a=16.627, 20.268, 20.000 89.61, 112.57, 108.87' 'a=16.627, 0.00% 18 0.1s 0.00% 0.00% 0.00% 0.00бу 0.00бу 0.00бу 4000.0" pbc="T T T"
Mg       9.43638388       2.29160029      -4.06138888       1.35246904       0.29862581       6.88805052
Al     -12.76763602      -2.72596523       6.80021157      -1.25475604       0.43580565      -3.78577982
Mg       6.47798645      12.14658961      10.23475089      -7.53722533      -2.71199690      12.35378036
Al       9.19063764       0.26284661       1.48303922       0.29913876      -0.29022199      -0.14879624
Al       8.55175729      13.67192240       7.53421964      -1.77213817      -0.41685797     -10.15446740
V        0.42927933       0.02951413       9.64003438       8.91251175       2.68464540      -5.15278742
6
Lattice="4.207491185501005 0.0 0.0 1.841435743064444 5.142191912848695 0.0 2.05251786167876 0.8435758214314663 5.374680621277926" Properties=species:S:1:pos:R:3:momenta:R:3 Combination=Al-Mg-V Element_Counts=Al:4/Mg:1/V:1 Total_Atoms=6 Num_Element_Types=3 Allocation_ID=411 Min_Distance=2.17 comment="initial_cell='a=6.995, b=9.080, c=9.667 | ж┴=75.19, ж┬=69.33, ж├=70.30' final_cell='a=6.995, b=9.080, c=9.667 | ж┴=75.19, ж┬=69.33, ж├=70.30' volume_change=0.00% optimizer_steps=2000 optimization_time=12.9s a_change=0.00% b_change=0.00% c_change=0.00% alpha_change=0.00бу beta_change=0.00бу gamma_change=0.00бу" Temp="'a=6.995, 9.080, 9.667 75.19, 69.33, 70.30' 'a=6.995, 0.00% 2000 12.9s 0.00% 0.00% 0.00% 0.00бу 0.00бу 0.00бу 4000.0" pbc="T T T"
Mg       4.33291255       1.14786783       1.78998297      -3.97379287      11.53583029      -2.30683753
V        5.04110151       4.32276965      -0.30635983      14.86369586     -30.06369224     -17.01783901
Al       1.35521741       0.69170784       2.70048892      -9.46193234      18.88261631      -1.02713521
Al       3.48437617      -1.50298808       3.49467063     -10.60790111     -16.90477571      14.83604337
Al       2.83971084       3.11870009       1.31533643      10.95391838      -3.32593374       6.28844935
Al       5.34939058       6.80026404       5.04009700      -1.77398792      19.87595509      -0.77268097
6
Lattice="14.288328059905178 0.0 0.0 -2.623181455513121 14.859024488687062 0.0 -1.4002315875669267 -1.176490146259797 5.507489911917864" Properties=species:S:1:pos:R:3:momenta:R:3 Combination=Al-Mg-Cr Element_Counts=Al:1/Mg:1/Cr:4 Total_Atoms=6 Num_Element_Types=3 Allocation_ID=114 Min_Distance=2.145 comment="initial_cell='a=20.064, b=21.188, c=8.149 | ж┴=99.07, ж┬=103.96, ж├=100.01' final_cell='a=20.064, b=21.188, c=8.149 | ж┴=99.07, ж┬=103.96, ж├=100.01' volume_change=0.00% optimizer_steps=26 optimization_time=0.1s a_change=0.00% b_change=0.00% c_change=0.00% alpha_change=0.00бу beta_change=0.00бу gamma_change=0.00бу" Temp="'a=20.064, 21.188, 8.149 99.07, 103.96, 100.01' 'a=20.064, 0.00% 26 0.1s 0.00% 0.00% 0.00% 0.00бу 0.00бу 0.00бу 4000.0" pbc="T T T"
Cr       4.25533692       3.49831867       1.92329882      -4.37388220       5.81217956      -3.70960050
Cr       2.01311494       5.05295125       0.47207360      -2.00954980      -6.62583059      10.41678447
Cr       3.93193611       3.80146823       3.86986072      -3.59116592      -1.20985098      -1.08498894
Mg       2.56097268       5.68735178       2.89080522     -10.88495031       6.86078623       1.37985860
Cr       1.40605778       4.97075473       4.30299382      28.72906064      -7.06128053       6.81508140
Al       3.45237392       4.34682816       5.99623073      -7.86951241       2.22399631     -13.81713503
6