6
Lattice="10.343654405761143 0.0 0.0 5.403068100084092 10.653236126279698 0.0 4.973107615748492 -2.1175507458310228 15.084014941769318" Properties=species:S:1:pos:R:3:momenta:R:3 Combination=Al-Mg-Ti Element_Counts=Al:1/Mg:1/Ti:4 Total_Atoms=6 Num_Element_Types=3 Allocation_ID=114 Min_Distance=2.195 comment="initial_cell='a=14.437, b=16.672, c=22.364 | ж┴=88.71, ж┬=71.92, ж├=63.11' final_cell='a=14.437, b=16.672, c=22.364 | ж┴=88.71, ж┬=71.92, ж├=63.11' volume_change=0.00% optimizer_steps=0 optimization_time=0.1s a_change=0.00% b_change=0.00% c_change=0.00% alpha_change=0.00бу beta_change=0.00бу gamma_change=0.00бу" Temp="'a=14.437, 16.672, 22.364 88.71, 71.92, 63.11' 'a=14.437, 0.00% 0 0.1s 0.00% 0.00% 0.00% 0.00бу 0.00бу 0.00бу 300.0" pbc="T T T"
Mg      16.59794052       4.98838806      11.39708566      -0.00035248      -0.01208140      -0.03637271
Al       9.67046673       0.13549088      14.46619278      -1.20488029       3.04601337       5.36553242
Ti       3.05905235       0.34156749       6.81436165      -0.11703613      -0.03716893       0.03639486
Ti      10.69588890      -0.85749008      11.49494427       1.55464622      -2.19963472      -5.24686889
Ti      14.46009368       3.00649649       1.18000098      -0.23033206      -0.93254085      -0.20560054
Ti      14.76980392       0.23696144      14.00030206      -0.00204526       0.13541253       0.08691487
6
Lattice="8.325999356754375 0.0 0.0 -2.2671616927328193 7.143569376247714 0.0 -2.747446987770388 0.6120934785522636 13.521475594852005" Properties=species:S:1:pos:R:3:momenta:R:3 Combination=Al-Mg-Ti Element_Counts=Al:1/Mg:2/Ti:3 Total_Atoms=6 Num_Element_Types=3 Allocation_ID=123 Min_Distance=2.195 comment="initial_cell='a=11.624, b=10.463, c=19.282 | ж┴=84.12, ж┬=101.47, ж├=107.61' final_cell='a=11.624, b=10.463, c=19.282 | ж┴=84.12, ж┬=101.47, ж├=107.61' volume_change=0.00% optimizer_steps=53 optimization_time=0.6s a_change=0.00% b_change=0.00% c_change=0.00% alpha_change=0.00бу beta_change=0.00бу gamma_change=0.00бу" Temp="'a=11.624, 10.463, 19.282 84.12, 101.47, 107.61' 'a=11.624, 0.00% 53 0.6s 0.00% 0.00% 0.00% 0.00бу 0.00бу 0.00бу 300.0" pbc="T T T"
Ti       1.51894209       4.50777954      14.28769886      -0.10616617      -0.86663287      -3.31578762
Mg       3.78798741       6.44893543      12.32211519      -1.07579006       2.19990316       4.58308682
Ti       3.55009814       0.91059586       6.95840468       7.98393142      -5.65994660     -15.39976545
Ti      -5.64985317       8.82026751       5.66072686     -11.94260474      -2.16600233      11.49687980
Al       2.55743830       1.84856894       8.51369934       3.10364664       7.13291414       5.68482626
Mg       2.44348599       3.56386152      11.24791128       2.03698292      -0.64023549      -3.04923981
6
Lattice="12.878955690903185 0.0 0.0 -4.468382351133391 12.463782479288009 0.0 -0.46080485963492834 -1.8686290425742265 8.08326698356944" Properties=species:S:1:pos:R:3:momenta:R:3 Combination=Al-Mg-Ti Element_Counts=Al:1/Mg:3/Ti:2 Total_Atoms=6 Num_Element_Types=3 Allocation_ID=132 Min_Distance=2.195 comment="initial_cell='a=17.978, b=18.482, c=11.599 | ж┴=101.13, ж┬=93.18, ж├=109.72' final_cell='a=17.978, b=18.482, c=11.599 | ж┴=101.13, ж┬=93.18, ж├=109.72' volume_change=0.00% optimizer_steps=2000 optimization_time=11.9s a_change=0.00% b_change=0.00% c_change=0.00% alpha_change=0.00бу beta_change=0.00бу gamma_change=0.00бу" Temp="'a=17.978, 18.482, 11.599 101.13, 93.18, 109.72' 'a=17.978, 0.00% 2000 11.9s 0.00% 0.00% 0.00% 0.00бу 0.00бу 0.00бу 300.0" pbc="T T T"
Al       9.95407388       5.79934761       4.28646975      -0.47265526      -0.23585924       0.78755342
Mg       6.62922490       5.83712994      -1.55928148       1.28439448      -1.55080669      -0.84573913
Ti      -0.73401959       6.45277981       2.60491391      -0.64597253       0.25260774      -0.06866898
Mg      -2.97316273       8.86557671       3.37574026      -0.56686116       1.13730998       1.10569011
Ti       8.34897430       6.73146807       1.31238819       1.11596230      -0.50804842      -0.95431403
Mg      -3.25676952      12.06430324       4.09742487      -0.71486784       0.90479663      -0.02452140
6
Lattice="16.097891574504196 0.0 0.0 -5.654601878579928 16.211025919241433 0.0 -0.7394038043243042 0.8095904914134585 5.253422824994479" Properties=species:S:1:pos:R:3:momenta:R:3 Combination=Al-Mg-Ti Element_Counts=Al:1/Mg:4/Ti:1 Total_Atoms=6 Num_Element_Types=3 Allocation_ID=141 Min_Distance=2.195 comment="initial_cell='a=22.538, b=24.038, c=7.514 | ж┴=79.17, ж┬=97.92, ж├=109.23' final_cell='a=22.538, b=24.038, c=7.514 | ж┴=79.17, ж┬=97.92, ж├=109.23' volume_change=0.00% optimizer_steps=13 optimization_time=0.1s a_change=0.00% b_change=0.00% c_change=0.00% alpha_change=0.00бу beta_change=0.00бу gamma_change=0.00бу" Temp="'a=22.538, 24.038, 7.514 79.17, 97.92, 109.23' 'a=22.538, 0.00% 13 0.1s 0.00% 0.00% 0.00% 0.00бу 0.00бу 0.00бу 300.0" pbc="T T T"
Al       4.04814933       9.12243138       1.93297530       0.35529583       0.04279397      -0.16280951
Mg       9.83118294      13.40437885       6.64013740       0.00639133      -1.30250789      -6.99490314
Ti      -5.80171308      13.01935939       3.34479674       0.04292538       1.35289681       7.06306496
Mg      -0.43717895      17.26910745       3.28353464      -0.07815409       0.03210856       0.03729992
Mg       1.36875131      10.27886496       2.18692678      -0.89959238       0.21525590       0.04881451
Mg       6.89901033       7.94720918       1.49778987       0.57313393      -0.34054735       0.00853327
6
Lattice="11.493621629504062 0.0 0.0 -3.6304039696435657 14.757105390931583 0.0 -4.297629899147231 -6.935917215835304 12.186476981013767" Properties=species:S:1:pos:R:3:momenta:R:3 Combination=Al-Mg-Ti Element_Counts=Al:2/Mg:1/Ti:3 Total_Atoms=6 Num_Element_Types=3 Allocation_ID=213 Min_Distance=2.195 comment="initial_cell='a=16.042, b=21.211, c=20.469 | ж┴=112.91, ж┬=107.04, ж├=103.82' final_cell='a=16.042, b=21.211, c=20.469 | ж┴=112.91, ж┬=107.04, ж├=103.82' volume_change=0.00% optimizer_steps=0 optimization_time=0.0s a_change=0.00% b_change=0.00% c_change=0.00% alpha_change=0.00бу beta_change=0.00бу gamma_change=0.00бу" Temp="'a=16.042, 21.211, 20.469 112.91, 107.04, 103.82' 'a=16.042, 0.00% 0 0.0s 0.00% 0.00% 0.00% 0.00бу 0.00бу 0.00бу 300.0" pbc="T T T"
Ti       2.20862627       5.60741535       1.14151061       1.11789120      -0.13188036      -0.76560888
Al       3.23617604       1.71187183       4.90912359      -5.41580138      -3.24390707      -3.06912487
Al       0.45747333       8.72223629       4.70593486      -0.24077539      -0.50072776       0.50393623
Ti      -2.66397656      15.27826784       3.71857824       5.53982054       3.93486968       3.55113191
Ti       6.98601507      -1.52268668       2.24054044      -0.09987215      -0.44678553      -0.24774717
Mg       8.12748799       4.39635400       1.14664520      -0.90126283       0.38843104       0.02741278
6
Lattice="12.6990752363084 0.0 0.0 -0.8900890709446553 6.5132848879499905 0.0 -1.1391892711917295 4.1855136793716 11.373437405675016" Properties=species:S:1:pos:R:3:momenta:R:3 Combination=Al-Mg-Ti Element_Counts=Al:2/Mg:2/Ti:2 Total_Atoms=6 Num_Element_Types=3 Allocation_ID=222 Min_Distance=2.195 comment="initial_cell='a=17.724, b=9.175, c=16.989 | ж┴=69.31, ж┬=95.37, ж├=97.78' final_cell='a=17.724, b=9.175, c=16.989 | ж┴=69.31, ж┬=95.37, ж├=97.78' volume_change=0.00% optimizer_steps=15 optimization_time=0.1s a_change=0.00% b_change=0.00% c_change=0.00% alpha_change=0.00бу beta_change=0.00бу gamma_change=0.00бу" Temp="'a=17.724, 9.175, 16.989 69.31, 95.37, 97.78' 'a=17.724, 0.00% 15 0.1s 0.00% 0.00% 0.00% 0.00бу 0.00бу 0.00бу 300.0" pbc="T T T"
Al       4.54653220       8.54516974       9.60143250      -1.57779478       0.84032986       1.26010144
Mg       0.09610939       3.89711293       6.90362789      -0.04836784      -0.31573590       0.37662244
Ti       2.21444544       5.20797798       0.99881702       6.41843160       2.59701474       0.12810801
Mg       6.92255853       4.12415546       8.29508699       0.04604259      -0.45188097       0.04328364
Ti       0.13678589       6.99734501       3.00677751       4.54244206       2.73924251       0.45843995
Al      11.81905765       4.83304136       1.44131443      -9.38075363      -5.40897024      -2.26655548
6
Lattice="5.64506025133019 0.0 0.0 -1.609454630600582 8.469124190893304 0.0 3.1846298696355504 3.0683921247685504 5.732613231974956" Properties=species:S:1:pos:R:3:momenta:R:3 Combination=Al-Mg-Ti Element_Counts=Al:2/Mg:3/Ti:1 Total_Atoms=6 Num_Element_Types=3 Allocation_ID=231 Min_Distance=2.195 comment="initial_cell='a=7.649, b=11.681, c=9.810 | ж┴=70.47, ж┬=63.91, ж├=100.76' final_cell='a=7.649, b=11.681, c=9.810 | ж┴=70.47, ж┬=63.91, ж├=100.76' volume_change=0.00% optimizer_steps=2000 optimization_time=12.7s a_change=0.00% b_change=0.00% c_change=0.00% alpha_change=0.00бу beta_change=0.00бу gamma_change=0.00бу" Temp="'a=7.649, 11.681, 9.810 70.47, 63.91, 100.76' 'a=7.649, 0.00% 2000 12.7s 0.00% 0.00% 0.00% 0.00бу 0.00бу 0.00бу 300.0" pbc="T T T"
Mg       4.98913411       7.48182677       5.93885892       4.77265841      -1.27402020      -5.02667559
Al       0.98300085       4.92530066       3.07683700      -1.64898980       0.62620270      -1.57369122
Mg       4.91358830       5.95124116       6.03203054      -1.51352532       4.39472781      -0.07360305
Mg       3.83558998       6.46411358       3.03489283       0.63342788      -5.19607994       3.37029205
Ti       4.52747388       3.51483603       1.71904228      -0.68499399       3.99084076       4.40776821
Al       4.59599731       3.11590278      -0.20477932      -1.55857718      -2.54167112      -1.10409041
6
Lattice="5.26191211395163 0.0 0.0 0.7455321874165615 15.154790712846369 0.0 -6.7414460665251035 6.42786371028052 14.02768733289001" Properties=species:S:1:pos:R:3:momenta:R:3 Combination=Al-Mg-Ti Element_Counts=Al:3/Mg:1/Ti:2 Total_Atoms=6 Num_Element_Types=3 Allocation_ID=312 Min_Distance=2.195 comment="initial_cell='a=7.343, b=21.173, c=23.497 | ж┴=68.80, ж┬=113.60, ж├=87.18' final_cell='a=7.343, b=21.173, c=23.497 | ж┴=68.80, ж┬=113.60, ж├=87.18' volume_change=0.00% optimizer_steps=96 optimization_time=0.5s a_change=0.00% b_change=0.00% c_change=0.00% alpha_change=0.00бу beta_change=0.00бу gamma_change=0.00бу" Temp="'a=7.343, 21.173, 23.497 68.80, 113.60, 87.18' 'a=7.343, 0.00% 96 0.5s 0.00% 0.00% 0.00% 0.00бу 0.00бу 0.00бу 300.0" pbc="T T T"
Mg      -3.30084427      23.60092478      12.88908286      -0.70342543       4.68660620       2.76689337
Ti       2.95762022      15.27834297       1.66429932      -8.18334695     -18.75245852       3.67837022
Al      -2.42108314       5.26057033       3.24076627      -0.68523398       6.10045569       4.32951109
Ti       0.67649219      11.68075660       9.56586244       0.04972987      -0.02939522       0.87458041
Al       5.71749958       6.69166588       4.10303937       1.98118071       6.74797546       3.66401474
Al       2.85830811       2.81759992       1.75704941       7.54109578       1.24681639     -15.31336982
6
Lattice="6.567741660115005 0.0 0.0 1.4063457215330735 10.17600195393886 0.0 -1.9481135678546093 -1.2350609890169661 12.328368736359" Properties=species:S:1:pos:R:3:momenta:R:3 Combination=Al-Mg-Ti Element_Counts=Al:3/Mg:2/Ti:1 Total_Atoms=6 Num_Element_Types=3 Allocation_ID=321 Min_Distance=2.195 comment="initial_cell='a=9.159, b=14.325, c=17.490 | ж┴=96.82, ж┬=98.94, ж├=82.13' final_cell='a=9.159, b=14.325, c=17.490 | ж┴=96.82, ж┬=98.94, ж├=82.13' volume_change=0.00% optimizer_steps=26 optimization_time=0.1s a_change=0.00% b_change=0.00% c_change=0.00% alpha_change=0.00бу beta_change=0.00бу gamma_change=0.00бу" Temp="'a=9.159, 14.325, 17.490 96.82, 98.94, 82.13' 'a=9.159, 0.00% 26 0.1s 0.00% 0.00% 0.00% 0.00бу 0.00бу 0.00бу 300.0" pbc="T T T"
Al      -0.64408035       5.39813397       9.85065169      -0.91775800      -5.51687083      -0.39792399
Mg       4.95201801       0.66233352       8.16179856      -0.84727833       1.44449619       2.86138935
Mg       5.55763502      10.66031681      11.21740087       2.50849618       0.72203263      -3.63797019
Al      -1.64759813       3.58662462       7.74257691       1.16023320       3.38421693       2.41388653
Ti       5.78790017       1.85261774       5.22977365       0.09961899      -4.87603226      -3.11711813
Al       6.00370760       8.36657196       9.93337607      -2.00331204       4.84215734       1.87773642
6
Lattice="7.160175680188759 0.0 0.0 -4.154251974904972 7.687298378701923 0.0 -3.2778190935361358 1.3341474224764382 6.460648714406568" Properties=species:S:1:pos:R:3:momenta:R:3 Combination=Al-Mg-Ti Element_Counts=Al:4/Mg:1/Ti:1 Total_Atoms=6 Num_Element_Types=3 Allocation_ID=411 Min_Distance=2.195 comment="initial_cell='a=10.090, b=12.313, c=10.381 | ж┴=68.23, ж┬=116.42, ж├=118.39' final_cell='a=10.090, b=12.313, c=10.381 | ж┴=68.23, ж┬=116.42, ж├=118.39' volume_change=0.00% optimizer_steps=168 optimization_time=1.0s a_change=0.00% b_change=0.00% c_change=0.00% alpha_change=0.00бу beta_change=0.00бу gamma_change=0.00бу" Temp="'a=10.090, 12.313, 10.381 68.23, 116.42, 118.39' 'a=10.090, 0.00% 168 1.0s 0.00% 0.00% 0.00% 0.00бу 0.00бу 0.00бу 300.0" pbc="T T T"
Mg      -1.30360590       3.63343219       5.90385835      -1.20070359      -0.43888724      -1.84792657
Al      -4.74701705       6.83350884       2.46945383       4.12408774      -6.01604472       2.13275804
Al       1.60603547       5.57379429      -0.00459485       5.70652299      -1.76612281      11.78910598
Al       3.61052798       3.89553870       1.71977637      -0.89890827      -2.10558761       1.53235731
Ti       3.25713665       4.94605763       4.52599471      -5.31667961      -5.26069072      -2.11175184
Al       4.62647530       0.88994593       0.99477510      -2.41431925      15.58733310     -11.49454293
6
Lattice="5.001657570670905 0.0 0.0 5.6141826082262645 10.786309308905793 0.0 1.5667297139391263 0.8134943205130247 9.488685924720286" Properties=species:S:1:pos:R:3:momenta:R:3 Combination=Al-Mg-V Element_Counts=Al:1/Mg:1/V:4 Total_Atoms=6 Num_Element_Types=3 Allocation_ID=114 Min_Distance=2.17 comment="initial_cell='a=6.982, b=16.974, c=13.473 | ж┴=81.39, ж┬=80.66, ж├=62.50' final_cell='a=6.982, b=16.974, c=13.473 | ж┴=81.39, ж┬=80.66, ж├=62.50' volume_change=0.00% optimizer_steps=300 optimization_time=1.6s a_change=0.00% b_change=0.00% c_change=0.00% alpha_change=0.00бу beta_change=0.00бу gamma_change=0.00бу" Temp="'a=6.982, 16.974, 13.473 81.39, 80.66, 62.50' 'a=6.982, 0.00% 300 1.6s 0.00% 0.00% 0.00% 0.00бу 0.00бу 0.00бу 300.0" pbc="T T T"
V        9.07384254       9.97024276       5.48759563      -0.00702885      -1.10407733      -2.98685393
Al      11.25479511      11.00667927       7.53902692      -0.67446865      -6.15015195      -1.00630952
V        3.92882558      11.12774959       9.29412310      -4.12418572       2.49056180       5.21135196
V        5.90643846       2.00314484       6.83752475       0.69512454       3.32607350      -3.13703419
Mg       2.82224349       1.74230155       6.29486178       2.90771849      -0.11639942       2.92142123
V        4.59400992       1.73687863       5.38911550       1.20284020       1.55399341      -1.00257555
6
Lattice="5.3182606174064135 0.0 0.0 -2.2659793976927465 4.484000629433918 0.0 -0.6745946260650267 -0.6243332558162763 14.501068437699523" Properties=species:S:1:pos:R:3:momenta:R:3 Combination=Al-Mg-V Element_Counts=Al:1/Mg:2/V:3 Total_Atoms=6 Num_Element_Types=3 Allocation_ID=123 Min_Distance=2.17 comment="initial_cell='a=7.391, b=6.982, c=20.194 | ж┴=91.00, ж┬=92.66, ж├=116.81' final_cell='a=7.391, b=6.982, c=20.194 | ж┴=91.00, ж┬=92.66, ж├=116.81' volume_change=0.00% optimizer_steps=101 optimization_time=0.7s a_change=0.00% b_change=0.00% c_change=0.00% alpha_change=0.00бу beta_change=0.00бу gamma_change=0.00бу" Temp="'a=7.391, 6.982, 20.194 91.00, 92.66, 116.81' 'a=7.391, 0.00% 101 0.7s 0.00% 0.00% 0.00% 0.00бу 0.00бу 0.00бу 300.0" pbc="T T T"
V        0.05608790       0.05048389      10.31293072      -7.28657397      -4.88725733       3.94727830
V        0.49906884       1.29003975       3.77561315      -0.00330533       0.03790084       0.00387311
Mg       2.27682387       1.26155084      10.66310779      -2.69933105      -0.37709188       4.62464657
Mg      -1.56657327       2.78274825      10.99949432       2.81546079       0.29351414      -3.76871164
Al       3.38515050      -1.83897099       9.75989159       4.80469259       5.29752547       0.72703799
V        1.12649311       3.94124581      12.30759568       2.36905696      -0.36459125      -5.53412433
6
Lattice="6.769871910875287 0.0 0.0 -0.16705333663050068 14.860760088526012 0.0 5.603771815159027 7.207974659488103 12.039056215673623" Properties=species:S:1:pos:R:3:momenta:R:3 Combination=Al-Mg-V Element_Counts=Al:1/Mg:3/V:2 Total_Atoms=6 Num_Element_Types=3 Allocation_ID=132 Min_Distance=2.17 comment="initial_cell='a=9.449, b=20.743, c=21.089 | ж┴=61.78, ж┬=68.23, ж├=90.64' final_cell='a=9.449, b=20.743, c=21.089 | ж┴=61.78, ж┬=68.23, ж├=90.64' volume_change=0.00% optimizer_steps=7 optimization_time=0.0s a_change=0.00% b_change=0.00% c_change=0.00% alpha_change=0.00бу beta_change=0.00бу gamma_change=0.00бу" Temp="'a=9.449, 20.743, 21.089 61.78, 68.23, 90.64' 'a=9.449, 0.00% 7 0.0s 0.00% 0.00% 0.00% 0.00бу 0.00бу 0.00бу 300.0" pbc="T T T"
Mg      10.19529060      15.42632503       6.87156744       0.43799333      -0.93968688       0.39541163
Al       9.32997821      19.68020739      10.47380711       0.12631329      -0.27231088       0.05830586
Mg       9.24026355      10.68993062       9.80414248      -0.50372164       0.11043306       0.11592946
V        8.26316229       5.34644359       3.77717297       0.92611295       2.16861470       1.36024334
V        7.77775154      10.96344841       7.77618544       0.12652923       0.10392621      -0.06023090
Mg       1.71628815       6.70275267       5.29977119      -1.11322715      -1.17097620      -1.86965940
6
Lattice="8.50864751685733 0.0 0.0 -1.2353059647632847 12.235827643865962 0.0 0.17730439406023615 5.106930476099897 9.789429502792592" Properties=species:S:1:pos:R:3:momenta:R:3 Combination=Al-Mg-V Element_Counts=Al:1/Mg:4/V:1 Total_Atoms=6 Num_Element_Types=3 Allocation_ID=141 Min_Distance=2.17 comment="initial_cell='a=11.875, b=17.163, c=15.412 | ж┴=62.71, ж┬=89.08, ж├=95.76' final_cell='a=11.875, b=17.163, c=15.412 | ж┴=62.71, ж┬=89.08, ж├=95.76' volume_change=0.00% optimizer_steps=45 optimization_time=0.2s a_change=0.00% b_change=0.00% c_change=0.00% alpha_change=0.00бу beta_change=0.00бу gamma_change=0.00бу" Temp="'a=11.875, 17.163, 15.412 62.71, 89.08, 95.76' 'a=11.875, 0.00% 45 0.2s 0.00% 0.00% 0.00% 0.00бу 0.00бу 0.00бу 300.0" pbc="T T T"
Mg       5.75015123       5.90599794       5.93063070      -0.25340208      -0.27619735       0.02124677
Mg       4.04011218      10.95135948       8.11932442      -3.57096117       7.02256592       1.60122544
Mg       2.68252265      13.73498065       9.19288619       1.81386324      -1.89715517      -0.46160575
Al      -0.18652393      13.36736645       2.08649552      -0.70139289       3.07795685       3.23612732
V        2.44734176      -1.16564659       0.91257261       3.69440893      -9.92447081      -5.28531051
Mg       7.37410148       9.08477805      11.41858061      -0.98251603       1.99730056       0.88831674
6
Lattice="7.668114399036453 0.0 0.0 -2.8651862805031123 6.654623709185061 0.0 0.9086720819623176 -1.0459431055619823 8.799156166157175" Properties=species:S:1:pos:R:3:momenta:R:3 Combination=Al-Mg-V Element_Counts=Al:2/Mg:1/V:3 Total_Atoms=6 Num_Element_Types=3 Allocation_ID=213 Min_Distance=2.17 comment="initial_cell='a=10.831, b=10.234, c=12.582 | ж┴=98.52, ж┬=84.15, ж├=113.29' final_cell='a=10.831, b=10.234, c=12.582 | ж┴=98.52, ж┬=84.15, ж├=113.29' volume_change=0.00% optimizer_steps=133 optimization_time=0.8s a_change=0.00% b_change=0.00% c_change=0.00% alpha_change=0.00бу beta_change=0.00бу gamma_change=0.00бу" Temp="'a=10.831, 10.234, 12.582 98.52, 84.15, 113.29' 'a=10.831, 0.00% 133 0.8s 0.00% 0.00% 0.00% 0.00бу 0.00бу 0.00бу 300.0" pbc="T T T"
Al       5.72853746       4.47231914      -0.78004212       7.80077640      -9.22813598      -7.15467414
Mg       0.54980946       4.83167474       0.51063805      -3.38023487      11.18568095       4.54356051
Al       0.27893288       2.62519338      -0.13109357      -1.27259195       2.34535534       6.94475924
V       -4.13671105       5.94537029       0.37619723       3.67279070      -3.47827168       1.12328054
V        0.48225415       5.48817008       8.85211087      -1.07139466      -0.10197458     -12.63538098
V        5.80472424       2.95318377       1.76865183      -5.74934561      -0.72265405       7.17845483
6
Lattice="6.609260787132699 0.0 0.0 0.2266245623242307 14.964285891862039 0.0 0.0013924428588657633 -3.285680752042436 6.0125772580993315" Properties=species:S:1:pos:R:3:momenta:R:3 Combination=Al-Mg-V Element_Counts=Al:2/Mg:2/V:2 Total_Atoms=6 Num_Element_Types=3 Allocation_ID=222 Min_Distance=2.17 comment="initial_cell='a=9.227, b=20.894, c=9.566 | ж┴=118.65, ж┬=89.99, ж├=89.13' final_cell='a=9.227, b=20.894, c=9.566 | ж┴=118.65, ж┬=89.99, ж├=89.13' volume_change=0.00% optimizer_steps=30 optimization_time=0.2s a_change=0.00% b_change=0.00% c_change=0.00% alpha_change=0.00бу beta_change=0.00бу gamma_change=0.00бу" Temp="'a=9.227, 20.894, 9.566 118.65, 89.99, 89.13' 'a=9.227, 0.00% 30 0.2s 0.00% 0.00% 0.00% 0.00бу 0.00бу 0.00бу 300.0" pbc="T T T"
V        1.77598630       8.04994195       4.10116904       8.45618305       4.73497980      -9.98530614
V        0.12547851      10.49947175      -2.66746175       3.32368639      -5.59135761       3.45741388
Al       4.99960454       7.26674008       2.22017996       1.64204022       1.98575309      16.77654161
Mg       7.49679564       6.21420923       6.76503448      -5.97506718       9.47767006      11.59142485
Al       4.22799034       1.53126674       4.04465381      -4.67172186     -14.84283079      -4.42315544
Mg      -1.11899717       3.72803033       6.17403490      -2.77512062       4.23578544     -17.41691876
6
Lattice="7.697629274798472 0.0 0.0 -0.1815493995552974 17.044815573858095 0.0 -1.7016862424939767 2.5010799433261792 4.455145472626079" Properties=species:S:1:pos:R:3:momenta:R:3 Combination=Al-Mg-V Element_Counts=Al:2/Mg:3/V:1 Total_Atoms=6 Num_Element_Types=3 Allocation_ID=231 Min_Distance=2.17 comment="initial_cell='a=10.866, b=24.063, c=7.602 | ж┴=62.11, ж┬=108.42, ж├=90.61' final_cell='a=10.866, b=24.063, c=7.602 | ж┴=62.11, ж┬=108.42, ж├=90.61' volume_change=0.00% optimizer_steps=2000 optimization_time=10.0s a_change=0.00% b_change=0.00% c_change=0.00% alpha_change=0.00бу beta_change=0.00бу gamma_change=0.00бу" Temp="'a=10.866, 24.063, 7.602 62.11, 108.42, 90.61' 'a=10.866, 0.00% 2000 10.0s 0.00% 0.00% 0.00% 0.00бу 0.00бу 0.00бу 300.0" pbc="T T T"
Mg       5.71034888      11.88885545       1.04512209      -0.01173154       0.14888836      -0.07310358
Mg       4.14939724       6.64066617       0.85020861      -3.81296056      -6.24985753       1.57760430
Al      -3.56646561       4.05482762       2.16903605      -9.08486961      12.88344642      -1.18683468
Mg       7.35401340      18.81933584      -1.65956436       6.60370109      -1.92420611      -8.41812615
V        4.80565716       5.40975435       5.86840323       0.74292495      -1.58549107      -0.00638302
Al       5.35920650       4.16255311      -0.69973935       5.56293567      -3.27278008       8.10684313
6
Lattice="17.07719588259425 0.0 0.0 -5.199013158653738 16.287033245769173 0.0 -3.3726600055990126 -3.3801512785260006 13.447637603480564" Properties=species:S:1:pos:R:3:momenta:R:3 Combination=Al-Mg-V Element_Counts=Al:3/Mg:1/V:2 Total_Atoms=6 Num_Element_Types=3 Allocation_ID=312 Min_Distance=2.17 comment="initial_cell='a=23.834, b=23.861, c=19.917 | ж┴=98.85, ж┬=103.67, ж├=107.70' final_cell='a=23.834, b=23.861, c=19.917 | ж┴=98.85, ж┬=103.67, ж├=107.70' volume_change=0.00% optimizer_steps=18 optimization_time=0.1s a_change=0.00% b_change=0.00% c_change=0.00% alpha_change=0.00бу beta_change=0.00бу gamma_change=0.00бу" Temp="'a=23.834, 23.861, 19.917 98.85, 103.67, 107.70' 'a=23.834, 0.00% 18 0.1s 0.00% 0.00% 0.00% 0.00бу 0.00бу 0.00бу 300.0" pbc="T T T"
V       -3.05268526       8.01590462       4.54087215       2.34973693       2.67828323      -1.16423287
Al       1.50653024       7.71110863       9.49795283       3.60566531       1.60585291      -1.99485410
Al      12.07585598       5.66943709       4.78146240      -3.86860227      -4.11112162       2.97215228
Mg      -1.24534619       6.54833998      11.16311212      -3.44511796      -1.62616077       2.03709180
V       13.47161661       6.61236141       2.07517844       1.48535125       1.60686007      -1.63328776
Al      -2.78708423      -2.17938138       6.43521209      -0.12703326      -0.15371383      -0.21686935
6
Lattice="11.912870281706553 0.0 0.0 -4.6960313545446395 13.741511481426317 0.0 -5.4990790659673 -1.776639322823082 13.11328457009755" Properties=species:S:1:pos:R:3:momenta:R:3 Combination=Al-Mg-V Element_Counts=Al:3/Mg:2/V:1 Total_Atoms=6 Num_Element_Types=3 Allocation_ID=321 Min_Distance=2.17 comment="initial_cell='a=16.627, b=20.268, c=20.000 | ж┴=89.61, ж┬=112.57, ж├=108.87' final_cell='a=16.627, b=20.268, c=20.000 | ж┴=89.61, ж┬=112.57, ж├=108.87' volume_change=0.00% optimizer_steps=18 optimization_time=0.1s a_change=0.00% b_change=0.00% c_change=0.00% alpha_change=0.00бу beta_change=0.00бу gamma_change=0.00бу" Temp="'a=16.627, 20.268, 20.000 89.61, 112.57, 108.87' 'a=16.627, 0.00% 18 0.1s 0.00% 0.00% 0.00% 0.00бу 0.00бу 0.00бу 300.0" pbc="T T T"
Mg      -0.83955958       6.62754391       2.03249995       0.92368301      -0.61196924      -1.59801487
Al      -4.89082602      -0.77381533       9.77469119      -0.67015296      -1.07276840       0.37471506
Mg       3.65948497       9.71838306       4.94904093       0.10932514       0.41221759       1.05853812
Al       7.37932547       1.91102387       1.98150431       0.30970510      -0.28019112      -0.07848796
Al       5.89431026      10.57238160       6.68673521       0.65205798       1.79603966       0.33654429
V        4.87019004      -1.14782229       7.86078004      -1.32461828      -0.24332850      -0.09329465
6
Lattice="3.8657058502933537 0.0 0.0 1.6918511794947313 4.724478432499314 0.0 1.8857865544829222 0.7750499868689226 4.938081484930896" Properties=species:S:1:pos:R:3:momenta:R:3 Combination=Al-Mg-V Element_Counts=Al:4/Mg:1/V:1 Total_Atoms=6 Num_Element_Types=3 Allocation_ID=411 Min_Distance=2.17 comment="initial_cell='a=6.995, b=9.080, c=9.667 | ж┴=75.19, ж┬=69.33, ж├=70.30' final_cell='a=6.995, b=9.080, c=9.667 | ж┴=75.19, ж┬=69.33, ж├=70.30' volume_change=0.00% optimizer_steps=2000 optimization_time=12.9s a_change=0.00% b_change=0.00% c_change=0.00% alpha_change=0.00бу beta_change=0.00бу gamma_change=0.00бу" Temp="'a=6.995, 9.080, 9.667 75.19, 69.33, 70.30' 'a=6.995, 0.00% 2000 12.9s 0.00% 0.00% 0.00% 0.00бу 0.00бу 0.00бу 300.0" pbc="T T T"
Mg       5.73381679       1.16733934       5.87357651       5.05888155     -18.49901417       6.52011898
V        3.33405504       3.52492040      -2.45092347      -6.52104133      18.58172320     -27.08473387
Al       1.79038139       1.67361418       2.63533346     -11.80733217      -8.89903179       1.27686072
Al       3.81185245       1.19314311       4.85922330      14.31241396       0.06557091       3.73875542
Al       3.83247516       2.51945958       0.34409566     -22.84777450       7.19323979       2.09221191
Al       3.40641894       3.72346656       3.97888731      21.80485249       1.55751206      13.45678684
6
Lattice="14.295127870239739 0.0 0.0 -2.6244298266518546 14.866095893252824 0.0 -1.4008979572905256 -1.1770500375096016 5.510110924443877" Properties=species:S:1:pos:R:3:momenta:R:3 Combination=Al-Mg-Cr Element_Counts=Al:1/Mg:1/Cr:4 Total_Atoms=6 Num_Element_Types=3 Allocation_ID=114 Min_Distance=2.145 comment="initial_cell='a=20.064, b=21.188, c=8.149 | ж┴=99.07, ж┬=103.96, ж├=100.01' final_cell='a=20.064, b=21.188, c=8.149 | ж┴=99.07, ж┬=103.96, ж├=100.01' volume_change=0.00% optimizer_steps=26 optimization_time=0.1s a_change=0.00% b_change=0.00% c_change=0.00% alpha_change=0.00бу beta_change=0.00бу gamma_change=0.00бу" Temp="'a=20.064, 21.188, 8.149 99.07, 103.96, 100.01' 'a=20.064, 0.00% 26 0.1s 0.00% 0.00% 0.00% 0.00бу 0.00бу 0.00бу 300.0" pbc="T T T"
Cr       4.86882575       6.37925290       0.09418376      -6.37214504      -6.77303726       1.77417104
Cr       2.19909297       3.44940581       6.05712292      -7.50196176       9.84300444     -12.29678716
Cr       2.32002375       4.16538801       1.91657661      -4.89236686      -8.38249452      -4.95865475
Mg       6.76457946       6.27951183       0.65598814       7.81582398       7.83439362      -6.84399114
Cr       2.16463846       3.74864710       3.85927339      16.69717486     -11.17351309      14.86255749
Al      -0.21705171       3.02596222       5.40434919      -5.74652518       8.65164681       7.46270452
6