6
Lattice="10.343743585078196 0.0 0.0 5.4031146834195445 10.653327974700442 0.0 4.97315049211727 -2.1175690026019787 15.084144990792433" Properties=species:S:1:pos:R:3:momenta:R:3 Combination=Al-Mg-Ti Element_Counts=Al:1/Mg:1/Ti:4 Total_Atoms=6 Num_Element_Types=3 Allocation_ID=114 Min_Distance=2.195 comment="initial_cell='a=14.437, b=16.672, c=22.364 | ж┴=88.71, ж┬=71.92, ж├=63.11' final_cell='a=14.437, b=16.672, c=22.364 | ж┴=88.71, ж┬=71.92, ж├=63.11' volume_change=0.00% optimizer_steps=0 optimization_time=0.1s a_change=0.00% b_change=0.00% c_change=0.00% alpha_change=0.00бу beta_change=0.00бу gamma_change=0.00бу" Temp="'a=14.437, 16.672, 22.364 88.71, 71.92, 63.11' 'a=14.437, 0.00% 0 0.1s 0.00% 0.00% 0.00% 0.00бу 0.00бу 0.00бу 2000.0" pbc="T T T"
Mg      16.99163501       6.29487105       9.36826057      -2.31874989       4.98074535       2.23413845
Al      10.54728158      -0.51913358      13.37366038      13.34573601      -9.35748199       4.84419174
Ti      -0.67220257      -1.24598722       8.02439060      -3.91020859       1.25898389     -14.02915148
Ti       9.97533861      -1.31362684      10.01155747       2.06714755      -2.82698208      12.20813980
Ti      17.76147098       1.04238192       0.49542038      -9.28496743       5.12178522      -5.83437855
Ti      15.22657878       3.95042919      16.60464352       0.10104234       0.82294961       0.57706003
6
Lattice="8.324259403215342 0.0 0.0 -2.2666879050417723 7.142076524965232 0.0 -2.746872830854816 0.611965564272116 13.518649899304128" Properties=species:S:1:pos:R:3:momenta:R:3 Combination=Al-Mg-Ti Element_Counts=Al:1/Mg:2/Ti:3 Total_Atoms=6 Num_Element_Types=3 Allocation_ID=123 Min_Distance=2.195 comment="initial_cell='a=11.624, b=10.463, c=19.282 | ж┴=84.12, ж┬=101.47, ж├=107.61' final_cell='a=11.624, b=10.463, c=19.282 | ж┴=84.12, ж┬=101.47, ж├=107.61' volume_change=0.00% optimizer_steps=53 optimization_time=0.6s a_change=0.00% b_change=0.00% c_change=0.00% alpha_change=0.00бу beta_change=0.00бу gamma_change=0.00бу" Temp="'a=11.624, 10.463, 19.282 84.12, 101.47, 107.61' 'a=11.624, 0.00% 53 0.6s 0.00% 0.00% 0.00% 0.00бу 0.00бу 0.00бу 2000.0" pbc="T T T"
Ti       2.14084864       2.86017808      14.88309735       7.46005042       0.91616846       7.79658392
Mg       3.97650685       5.97559351      14.11456474      -3.98074893      -5.89499171       1.27759631
Ti       2.80167008       1.30092768       5.95935595       3.03958986       5.56554921     -11.76387566
Ti      -6.57522759       9.45759790       4.76937494      -6.52708112      -0.94519131      14.74226171
Al       3.30932673       3.26646054       8.57489257      -0.68776943      -1.64761422      -9.57516717
Mg       3.49025702       3.67571497      11.91997128       0.69595920       2.00607956      -2.47739910
6
Lattice="12.879376958193214 0.0 0.0 -4.468528510757557 12.464190166370182 0.0 -0.4608199324420013 -1.8686901649440495 8.083531385129502" Properties=species:S:1:pos:R:3:momenta:R:3 Combination=Al-Mg-Ti Element_Counts=Al:1/Mg:3/Ti:2 Total_Atoms=6 Num_Element_Types=3 Allocation_ID=132 Min_Distance=2.195 comment="initial_cell='a=17.978, b=18.482, c=11.599 | ж┴=101.13, ж┬=93.18, ж├=109.72' final_cell='a=17.978, b=18.482, c=11.599 | ж┴=101.13, ж┬=93.18, ж├=109.72' volume_change=0.00% optimizer_steps=2000 optimization_time=11.9s a_change=0.00% b_change=0.00% c_change=0.00% alpha_change=0.00бу beta_change=0.00бу gamma_change=0.00бу" Temp="'a=17.978, 18.482, 11.599 101.13, 93.18, 109.72' 'a=17.978, 0.00% 2000 11.9s 0.00% 0.00% 0.00% 0.00бу 0.00бу 0.00бу 2000.0" pbc="T T T"
Al       8.76304513       5.92889374       2.71137694      -4.49951396      -0.98025742      -2.99314927
Mg       6.82198118       5.60881907       0.53394085      -0.54313263      -1.58095692      -2.54285823
Ti      -1.34453947       6.16796435       3.42387204       5.56434877       1.78620212       3.92156909
Mg      -3.22383613       9.01207618       3.15195632       3.61765080       2.03480926       1.29310144
Ti      10.15820561       7.03451545       0.48019996      -2.67506565      -2.76427546      -0.64005788
Mg      -4.23657744      11.96833147       4.00319037      -1.46428733       1.50447843       0.96139485
6
Lattice="16.16923633590447 0.0 0.0 -5.679662689803202 16.282872084368687 0.0 -0.7426807917331116 0.8131785414493641 5.276705637917509" Properties=species:S:1:pos:R:3:momenta:R:3 Combination=Al-Mg-Ti Element_Counts=Al:1/Mg:4/Ti:1 Total_Atoms=6 Num_Element_Types=3 Allocation_ID=141 Min_Distance=2.195 comment="initial_cell='a=22.538, b=24.038, c=7.514 | ж┴=79.17, ж┬=97.92, ж├=109.23' final_cell='a=22.538, b=24.038, c=7.514 | ж┴=79.17, ж┬=97.92, ж├=109.23' volume_change=0.00% optimizer_steps=13 optimization_time=0.1s a_change=0.00% b_change=0.00% c_change=0.00% alpha_change=0.00бу beta_change=0.00бу gamma_change=0.00бу" Temp="'a=22.538, 24.038, 7.514 79.17, 97.92, 109.23' 'a=22.538, 0.00% 13 0.1s 0.00% 0.00% 0.00% 0.00бу 0.00бу 0.00бу 2000.0" pbc="T T T"
Al       6.30140549       8.09967201      -0.34228716       0.96997571      -0.91909894       2.40214520
Mg       9.36681722      14.34488300       7.20041669       2.66049930       1.81821237       5.24409524
Ti      -4.25948679      13.96340166       4.90179469      -1.91080528      -1.06730421      -4.20469583
Mg      -4.52896763      19.03823822       5.25174244      -1.18963429       0.50423928       0.57227904
Mg       1.61422141       6.46053947      -1.94862132       0.00432552      -1.04029271      -1.36440414
Mg       5.71854929       8.70730281       2.66328959      -0.53436096       0.70424421      -2.64941952
6
Lattice="11.494283854164278 0.0 0.0 -3.6306131415750045 14.757955646788135 0.0 -4.297877514441302 -6.936316840563691 12.187179125719602" Properties=species:S:1:pos:R:3:momenta:R:3 Combination=Al-Mg-Ti Element_Counts=Al:2/Mg:1/Ti:3 Total_Atoms=6 Num_Element_Types=3 Allocation_ID=213 Min_Distance=2.195 comment="initial_cell='a=16.042, b=21.211, c=20.469 | ж┴=112.91, ж┬=107.04, ж├=103.82' final_cell='a=16.042, b=21.211, c=20.469 | ж┴=112.91, ж┬=107.04, ж├=103.82' volume_change=0.00% optimizer_steps=0 optimization_time=0.0s a_change=0.00% b_change=0.00% c_change=0.00% alpha_change=0.00бу beta_change=0.00бу gamma_change=0.00бу" Temp="'a=16.042, 21.211, 20.469 112.91, 107.04, 103.82' 'a=16.042, 0.00% 0 0.0s 0.00% 0.00% 0.00% 0.00бу 0.00бу 0.00бу 2000.0" pbc="T T T"
Ti       4.12907213       3.46527393      -2.58199453       1.02084424      -0.81914924      -1.58077728
Al       1.44157219       1.68248771       4.43979957      -1.79894361       1.15249105       1.69417079
Al      -0.55389073       3.63880328       8.22366944      -3.78885285      -3.28192715       2.82320668
Ti      -1.56934861      18.95516417       6.11150220       5.37602013       2.47457873      -2.72974967
Ti       6.59745549      -3.50894371       1.16810310       8.94579734      -1.63372286       3.46207310
Mg       6.07116663      10.96452943       2.49659858      -9.75486526       2.10772947      -3.66892362
6
Lattice="12.697351776446249 0.0 0.0 -0.8899682721652944 6.512400934995405 0.0 -1.1390346656832384 4.184945640778677 11.371893855259056" Properties=species:S:1:pos:R:3:momenta:R:3 Combination=Al-Mg-Ti Element_Counts=Al:2/Mg:2/Ti:2 Total_Atoms=6 Num_Element_Types=3 Allocation_ID=222 Min_Distance=2.195 comment="initial_cell='a=17.724, b=9.175, c=16.989 | ж┴=69.31, ж┬=95.37, ж├=97.78' final_cell='a=17.724, b=9.175, c=16.989 | ж┴=69.31, ж┬=95.37, ж├=97.78' volume_change=0.00% optimizer_steps=15 optimization_time=0.1s a_change=0.00% b_change=0.00% c_change=0.00% alpha_change=0.00бу beta_change=0.00бу gamma_change=0.00бу" Temp="'a=17.724, 9.175, 16.989 69.31, 95.37, 97.78' 'a=17.724, 0.00% 15 0.1s 0.00% 0.00% 0.00% 0.00бу 0.00бу 0.00бу 2000.0" pbc="T T T"
Al       5.76463696       6.42954125       9.85117977      -1.54987921       0.59079177       0.68923362
Mg      -0.56910213       2.98466045       6.32936508       0.03263190       0.84234887       0.62282441
Ti       0.56020536       5.43388314       2.05444312      -1.42852850       1.69367700      -0.64043908
Mg       8.26840350       5.32472800       9.03460765       1.17760326      -1.05842176      -0.01237756
Ti       0.27077706       7.29215912       2.49128356       1.08358110      -0.56154077      -0.14596478
Al      12.68121250       5.75960630       0.08015204       0.68459145      -1.50685511      -0.51327661
6
Lattice="4.983222337222545 0.0 0.0 -1.420759019191195 7.476187492388002 0.0 2.811257629786054 2.708647825663395 5.060510435030985" Properties=species:S:1:pos:R:3:momenta:R:3 Combination=Al-Mg-Ti Element_Counts=Al:2/Mg:3/Ti:1 Total_Atoms=6 Num_Element_Types=3 Allocation_ID=231 Min_Distance=2.195 comment="initial_cell='a=7.649, b=11.681, c=9.810 | ж┴=70.47, ж┬=63.91, ж├=100.76' final_cell='a=7.649, b=11.681, c=9.810 | ж┴=70.47, ж┬=63.91, ж├=100.76' volume_change=0.00% optimizer_steps=2000 optimization_time=12.7s a_change=0.00% b_change=0.00% c_change=0.00% alpha_change=0.00бу beta_change=0.00бу gamma_change=0.00бу" Temp="'a=7.649, 11.681, 9.810 70.47, 63.91, 100.76' 'a=7.649, 0.00% 2000 12.7s 0.00% 0.00% 0.00% 0.00бу 0.00бу 0.00бу 2000.0" pbc="T T T"
Mg       6.03990296       6.56171009       6.88818674       4.73733257       6.98439265      -4.21899461
Al      -0.76242896       2.68497623      -0.85830966      -1.72588048      16.59114193     -10.24801221
Mg       4.59574961       6.53163985       6.10048658      -2.83058274       3.91282568      -5.84071977
Mg       5.05078674       3.55629443       1.85910426       3.68975056      -4.77608307       0.85228812
Ti       4.43842841       5.24855041       2.60903518       3.88496487     -12.13559060      24.52909431
Al       1.69781445       1.43068141       0.01472945      -7.75558479     -10.57668659      -5.07365584
6
Lattice="5.266446541222183 0.0 0.0 0.7461746461670162 15.167850280319195 0.0 -6.747255475011073 6.433402890690241 14.039775624485927" Properties=species:S:1:pos:R:3:momenta:R:3 Combination=Al-Mg-Ti Element_Counts=Al:3/Mg:1/Ti:2 Total_Atoms=6 Num_Element_Types=3 Allocation_ID=312 Min_Distance=2.195 comment="initial_cell='a=7.343, b=21.173, c=23.497 | ж┴=68.80, ж┬=113.60, ж├=87.18' final_cell='a=7.343, b=21.173, c=23.497 | ж┴=68.80, ж┬=113.60, ж├=87.18' volume_change=0.00% optimizer_steps=96 optimization_time=0.5s a_change=0.00% b_change=0.00% c_change=0.00% alpha_change=0.00бу beta_change=0.00бу gamma_change=0.00бу" Temp="'a=7.343, 21.173, 23.497 68.80, 113.60, 87.18' 'a=7.343, 0.00% 96 0.5s 0.00% 0.00% 0.00% 0.00бу 0.00бу 0.00бу 2000.0" pbc="T T T"
Mg      -2.56099489      25.36642148      13.93002033      15.83321394     -22.25190881      12.48838001
Ti       1.38668001      18.56952830      -2.07351969       8.39308171      17.57337415      -3.95714616
Al      -5.30487271       4.27439462       3.04340561       0.46229415      12.72027736     -18.47808737
Ti       3.93836262      10.37472154      14.72667639       6.12190679      -0.37186614       4.48163959
Al       7.89029252       3.40840074       1.68887194     -15.79340974      -7.01905831       7.02909898
Al      -0.08867503       2.04715714       0.94143099     -15.01708685      -0.65081827      -1.56388505
6
Lattice="6.554577839375898 0.0 0.0 1.4035269622192101 10.155606044280004 0.0 -1.9442089353166976 -1.232585538199526 12.303658806454653" Properties=species:S:1:pos:R:3:momenta:R:3 Combination=Al-Mg-Ti Element_Counts=Al:3/Mg:2/Ti:1 Total_Atoms=6 Num_Element_Types=3 Allocation_ID=321 Min_Distance=2.195 comment="initial_cell='a=9.159, b=14.325, c=17.490 | ж┴=96.82, ж┬=98.94, ж├=82.13' final_cell='a=9.159, b=14.325, c=17.490 | ж┴=96.82, ж┬=98.94, ж├=82.13' volume_change=0.00% optimizer_steps=26 optimization_time=0.1s a_change=0.00% b_change=0.00% c_change=0.00% alpha_change=0.00бу beta_change=0.00бу gamma_change=0.00бу" Temp="'a=9.159, 14.325, 17.490 96.82, 98.94, 82.13' 'a=9.159, 0.00% 26 0.1s 0.00% 0.00% 0.00% 0.00бу 0.00бу 0.00бу 2000.0" pbc="T T T"
Al       0.36808036       7.01395633       7.03436022      -2.89332971       6.94270626       0.58881318
Mg       6.45264337       3.89337514       7.41054111      -5.40076656       2.52043712      15.08122968
Mg       5.39558776       9.29552498      11.19966670       4.32251954       9.54977861     -11.48229746
Al      -0.82370153       0.33528016       6.59268191      -2.43451635      -0.62661106      -2.83680460
Ti       4.51183196       1.28023591       8.65716253       8.32998266      -8.39305140      -2.85216376
Al       5.17868979       9.27460872       8.40310394      -1.92388959      -9.99325954       1.50122297
6
Lattice="6.968133140272184 0.0 0.0 -4.04283109134737 7.481117920053763 0.0 -3.18990495117068 1.2983643535854807 6.287368135264314" Properties=species:S:1:pos:R:3:momenta:R:3 Combination=Al-Mg-Ti Element_Counts=Al:4/Mg:1/Ti:1 Total_Atoms=6 Num_Element_Types=3 Allocation_ID=411 Min_Distance=2.195 comment="initial_cell='a=10.090, b=12.313, c=10.381 | ж┴=68.23, ж┬=116.42, ж├=118.39' final_cell='a=10.090, b=12.313, c=10.381 | ж┴=68.23, ж┬=116.42, ж├=118.39' volume_change=0.00% optimizer_steps=168 optimization_time=1.0s a_change=0.00% b_change=0.00% c_change=0.00% alpha_change=0.00бу beta_change=0.00бу gamma_change=0.00бу" Temp="'a=10.090, 12.313, 10.381 68.23, 116.42, 118.39' 'a=10.090, 0.00% 168 1.0s 0.00% 0.00% 0.00% 0.00бу 0.00бу 0.00бу 2000.0" pbc="T T T"
Mg      -1.44649298       2.45753389       8.61140441      -3.43569045       6.79156617       0.28605477
Al      -5.18258371       6.06646238      -1.01177447       3.69245999       5.11587558      -2.28376279
Al       0.97916084       3.20086105      -0.13172100       1.30698206       0.56096948       6.41862267
Al       2.87379786       4.55936779       1.48028454      -7.65200539       2.24004238       4.59562021
Ti       4.80707142       5.52337386       3.32719728      -1.91954932     -13.64632440     -15.21848391
Al       3.54450896       2.61689559       4.03349343       8.00780311      -1.06212921       6.20194904
6
Lattice="4.949742278704843 0.0 0.0 5.555909540720376 10.674351545085273 0.0 1.5504676589339916 0.8050505607063069 9.39019699516122" Properties=species:S:1:pos:R:3:momenta:R:3 Combination=Al-Mg-V Element_Counts=Al:1/Mg:1/V:4 Total_Atoms=6 Num_Element_Types=3 Allocation_ID=114 Min_Distance=2.17 comment="initial_cell='a=6.982, b=16.974, c=13.473 | ж┴=81.39, ж┬=80.66, ж├=62.50' final_cell='a=6.982, b=16.974, c=13.473 | ж┴=81.39, ж┬=80.66, ж├=62.50' volume_change=0.00% optimizer_steps=300 optimization_time=1.6s a_change=0.00% b_change=0.00% c_change=0.00% alpha_change=0.00бу beta_change=0.00бу gamma_change=0.00бу" Temp="'a=6.982, 16.974, 13.473 81.39, 80.66, 62.50' 'a=6.982, 0.00% 300 1.6s 0.00% 0.00% 0.00% 0.00бу 0.00бу 0.00бу 2000.0" pbc="T T T"
V        6.44469652       9.51632307       8.05868784       8.19025763      -0.51697867      -1.32927113
Al       8.07512202      11.67990237       7.10704978      -6.36362655       1.66154106       6.14446555
V        9.50487925       9.87674455       7.59858719      -1.34709034       2.22562924      -4.93803497
V        5.79674432       1.39305801       4.85438735       3.41828735      -2.47476439       3.26116356
Mg       0.80432502       2.11281785       6.71223446      -2.32659568      -0.34401930      -0.41893487
V        4.08390982       3.19158518       6.17340410      -1.57123240      -0.55140794      -2.71938814
6
Lattice="5.8374285027121475 0.0 0.0 -2.487184001355105 4.921728167056564 0.0 -0.740448462619507 -0.6852805841753473 15.916660785850668" Properties=species:S:1:pos:R:3:momenta:R:3 Combination=Al-Mg-V Element_Counts=Al:1/Mg:2/V:3 Total_Atoms=6 Num_Element_Types=3 Allocation_ID=123 Min_Distance=2.17 comment="initial_cell='a=7.391, b=6.982, c=20.194 | ж┴=91.00, ж┬=92.66, ж├=116.81' final_cell='a=7.391, b=6.982, c=20.194 | ж┴=91.00, ж┬=92.66, ж├=116.81' volume_change=0.00% optimizer_steps=101 optimization_time=0.7s a_change=0.00% b_change=0.00% c_change=0.00% alpha_change=0.00бу beta_change=0.00бу gamma_change=0.00бу" Temp="'a=7.391, 6.982, 20.194 91.00, 92.66, 116.81' 'a=7.391, 0.00% 101 0.7s 0.00% 0.00% 0.00% 0.00бу 0.00бу 0.00бу 2000.0" pbc="T T T"
V       -0.54127386      -0.52547971      13.65019403      -3.42480011      -1.42306786      -0.32288291
V        0.24717757       4.86294477       4.49643596      -0.03964281       0.45456742       0.04645250
Mg       2.40331208      -0.44233544      12.26292290       2.71960101       4.62333117       0.54956483
Mg      -1.61900714       2.02606818      11.93735881      -7.69879040       0.77691785       1.81135874
Al       5.33107980      -0.44046090      10.77113888       2.07698935      -4.53994403      -0.23757336
V        1.28201046       1.98643736      10.59350842       6.36664296       0.10819545      -1.84691979
6
Lattice="6.7701948884597165 0.0 0.0 -0.16706130642429362 14.861469066843291 0.0 5.604039160347885 7.20831853811306 12.039630575919519" Properties=species:S:1:pos:R:3:momenta:R:3 Combination=Al-Mg-V Element_Counts=Al:1/Mg:3/V:2 Total_Atoms=6 Num_Element_Types=3 Allocation_ID=132 Min_Distance=2.17 comment="initial_cell='a=9.449, b=20.743, c=21.089 | ж┴=61.78, ж┬=68.23, ж├=90.64' final_cell='a=9.449, b=20.743, c=21.089 | ж┴=61.78, ж┬=68.23, ж├=90.64' volume_change=0.00% optimizer_steps=7 optimization_time=0.0s a_change=0.00% b_change=0.00% c_change=0.00% alpha_change=0.00бу beta_change=0.00бу gamma_change=0.00бу" Temp="'a=9.449, 20.743, 21.089 61.78, 68.23, 90.64' 'a=9.449, 0.00% 7 0.0s 0.00% 0.00% 0.00% 0.00бу 0.00бу 0.00бу 2000.0" pbc="T T T"
Mg      13.15787859      20.06883810       5.69847895      -6.01777554       1.63469340      -5.67194804
Al      10.48698269      17.18779263      11.00817140       0.18848955      -0.40635279       0.08700626
Mg       7.06223729      12.11969946       9.73294043       2.75827792       3.42624803       1.48314909
V        5.81326990       2.79467964       3.47915645       4.79062135       1.26506022       3.84073963
V        7.05274868      11.09722004       8.10104220       0.00584393       3.14040681       5.66690054
Mg       6.30476432       8.46953131       5.89735487      -1.72545721      -9.06005567      -5.40584747
6
Lattice="8.509646591353539 0.0 0.0 -1.2354510128078788 12.23726435908009 0.0 0.1773252129151509 5.10753012533705 9.790578965069582" Properties=species:S:1:pos:R:3:momenta:R:3 Combination=Al-Mg-V Element_Counts=Al:1/Mg:4/V:1 Total_Atoms=6 Num_Element_Types=3 Allocation_ID=141 Min_Distance=2.17 comment="initial_cell='a=11.875, b=17.163, c=15.412 | ж┴=62.71, ж┬=89.08, ж├=95.76' final_cell='a=11.875, b=17.163, c=15.412 | ж┴=62.71, ж┬=89.08, ж├=95.76' volume_change=0.00% optimizer_steps=45 optimization_time=0.2s a_change=0.00% b_change=0.00% c_change=0.00% alpha_change=0.00бу beta_change=0.00бу gamma_change=0.00бу" Temp="'a=11.875, 17.163, 15.412 62.71, 89.08, 95.76' 'a=11.875, 0.00% 45 0.2s 0.00% 0.00% 0.00% 0.00бу 0.00бу 0.00бу 2000.0" pbc="T T T"
Mg       5.19754913       8.01923686      13.06105465      -0.66030728       0.91619247      -2.04377605
Mg       1.94150339      11.89146669       9.37420993       8.15716884       3.91094262       4.92616168
Mg       4.11860015      14.39072320       8.87812546       0.39149936      -2.86476289      -6.68578963
Al       1.43073802       9.03508697      -2.13568239       1.27402458      -2.78422456      11.59801928
V        2.21516349      -3.48454488       0.70838621      -8.70962768      -4.84453654     -10.43783935
Mg       7.28341230      15.05140765       8.46769472      -0.45275781       5.66638890       2.64322407
6
Lattice="7.693281423422118 0.0 0.0 -2.874589923855099 6.676464421053871 0.0 0.9116543760773059 -1.0493759280622572 8.828035309879159" Properties=species:S:1:pos:R:3:momenta:R:3 Combination=Al-Mg-V Element_Counts=Al:2/Mg:1/V:3 Total_Atoms=6 Num_Element_Types=3 Allocation_ID=213 Min_Distance=2.17 comment="initial_cell='a=10.831, b=10.234, c=12.582 | ж┴=98.52, ж┬=84.15, ж├=113.29' final_cell='a=10.831, b=10.234, c=12.582 | ж┴=98.52, ж┬=84.15, ж├=113.29' volume_change=0.00% optimizer_steps=133 optimization_time=0.8s a_change=0.00% b_change=0.00% c_change=0.00% alpha_change=0.00бу beta_change=0.00бу gamma_change=0.00бу" Temp="'a=10.831, 10.234, 12.582 98.52, 84.15, 113.29' 'a=10.831, 0.00% 133 0.8s 0.00% 0.00% 0.00% 0.00бу 0.00бу 0.00бу 2000.0" pbc="T T T"
Al       4.55839967       4.34860363      -0.50128618      -0.12860137       8.09232782       0.28649075
Mg      -1.70422164       5.18681966       0.58382805      -6.83349625      -0.32517775       1.83863219
Al      -1.07312189       2.55318335       0.98564693       4.86732638       5.23807513      -3.16515402
V       -2.01921448       6.91278258      -0.41962457       9.76058863     -10.27208134       2.50850763
V        2.12867703       3.12617098       8.42909282      -4.75867794      15.19145379      -3.43817762
V        4.47049797       4.34911446       2.24874480      -2.90713945     -17.92459765       1.96970107
6
Lattice="6.588624350169257 0.0 0.0 0.22591696072620052 14.917562127668695 0.0 0.0013880951624731287 -3.275421701007029 5.9938038769950115" Properties=species:S:1:pos:R:3:momenta:R:3 Combination=Al-Mg-V Element_Counts=Al:2/Mg:2/V:2 Total_Atoms=6 Num_Element_Types=3 Allocation_ID=222 Min_Distance=2.17 comment="initial_cell='a=9.227, b=20.894, c=9.566 | ж┴=118.65, ж┬=89.99, ж├=89.13' final_cell='a=9.227, b=20.894, c=9.566 | ж┴=118.65, ж┬=89.99, ж├=89.13' volume_change=0.00% optimizer_steps=30 optimization_time=0.2s a_change=0.00% b_change=0.00% c_change=0.00% alpha_change=0.00бу beta_change=0.00бу gamma_change=0.00бу" Temp="'a=9.227, 20.894, 9.566 118.65, 89.99, 89.13' 'a=9.227, 0.00% 30 0.2s 0.00% 0.00% 0.00% 0.00бу 0.00бу 0.00бу 2000.0" pbc="T T T"
V        4.21523763       6.39326902       3.19792062      -4.93056443       7.35645980      -4.52489335
V       -3.02376788      10.91686197      -1.45684145      11.48641817     -11.85492853     -14.62756117
Al       9.59390276      12.25075577      -0.16181840      -3.20511290       9.43180987       5.87134258
Mg       4.12760462       4.77858628       6.13768587      -6.68873257       1.02009659       3.68236855
Al       4.75235057       1.75535622       5.26832377       0.72314936       0.49758796       7.21650606
Mg      -2.00839076       1.79653174       7.37154356       2.61484238      -6.45102568       2.38223733
6
Lattice="7.676074537407074 0.0 0.0 -0.18104102879707012 16.99708704466242 0.0 -1.6969212169555823 2.4940764725887803 4.442670269251803" Properties=species:S:1:pos:R:3:momenta:R:3 Combination=Al-Mg-V Element_Counts=Al:2/Mg:3/V:1 Total_Atoms=6 Num_Element_Types=3 Allocation_ID=231 Min_Distance=2.17 comment="initial_cell='a=10.866, b=24.063, c=7.602 | ж┴=62.11, ж┬=108.42, ж├=90.61' final_cell='a=10.866, b=24.063, c=7.602 | ж┴=62.11, ж┬=108.42, ж├=90.61' volume_change=0.00% optimizer_steps=2000 optimization_time=10.0s a_change=0.00% b_change=0.00% c_change=0.00% alpha_change=0.00бу beta_change=0.00бу gamma_change=0.00бу" Temp="'a=10.866, 24.063, 7.602 62.11, 108.42, 90.61' 'a=10.866, 0.00% 2000 10.0s 0.00% 0.00% 0.00% 0.00бу 0.00бу 0.00бу 2000.0" pbc="T T T"
Mg       7.05144663      16.75558026      -4.17117492      11.62724145       4.31017774       2.94742953
Mg       5.14300106       8.45145755      -2.97022133       0.04303772      -0.06252860      -0.09303411
Al      -1.96509245       4.33570585       5.58176984      -0.65537357       1.77334167       0.98417503
Mg       6.25664494      16.43944425      -0.92788319      -1.62921261      -8.59294945      -2.05520851
V        3.22147220       3.44233945       6.19251132      -1.19568742       2.28555918       5.04491130
Al       5.56035788       3.57905589       2.72106710      -8.19000557       0.28639945      -6.82827323
6
Lattice="17.077155299030238 0.0 0.0 -5.1990008033183175 16.286994540008468 0.0 -3.372651990549921 -3.380143245674089 13.447605645478497" Properties=species:S:1:pos:R:3:momenta:R:3 Combination=Al-Mg-V Element_Counts=Al:3/Mg:1/V:2 Total_Atoms=6 Num_Element_Types=3 Allocation_ID=312 Min_Distance=2.17 comment="initial_cell='a=23.834, b=23.861, c=19.917 | ж┴=98.85, ж┬=103.67, ж├=107.70' final_cell='a=23.834, b=23.861, c=19.917 | ж┴=98.85, ж┬=103.67, ж├=107.70' volume_change=0.00% optimizer_steps=18 optimization_time=0.1s a_change=0.00% b_change=0.00% c_change=0.00% alpha_change=0.00бу beta_change=0.00бу gamma_change=0.00бу" Temp="'a=23.834, 23.861, 19.917 98.85, 103.67, 107.70' 'a=23.834, 0.00% 18 0.1s 0.00% 0.00% 0.00% 0.00бу 0.00бу 0.00бу 2000.0" pbc="T T T"
V       -2.76390833       8.83868971       6.37338590      -3.30096379      -3.82267791      -1.36124419
Al       0.68220238       7.02053961      11.88896597      -2.31200133      -0.69385554       2.98919978
Al      13.04622569       6.77606472       4.92866355       3.80921841       4.81582755      -0.02201070
Mg       3.07758221       6.88675217       9.41406573       3.56991530       0.65959489      -2.28788800
V       12.33009202       6.96232859       1.92976959      -0.71010362       0.05495008       2.43502829
Al      -5.21729574      -5.11456008       2.28716166      -1.05606498      -1.01383906      -1.75308519
6
Lattice="11.913201488623821 0.0 0.0 -4.696161915696731 13.74189352903948 0.0 -5.499231953808971 -1.7766887177396145 13.113649151466744" Properties=species:S:1:pos:R:3:momenta:R:3 Combination=Al-Mg-V Element_Counts=Al:3/Mg:2/V:1 Total_Atoms=6 Num_Element_Types=3 Allocation_ID=321 Min_Distance=2.17 comment="initial_cell='a=16.627, b=20.268, c=20.000 | ж┴=89.61, ж┬=112.57, ж├=108.87' final_cell='a=16.627, b=20.268, c=20.000 | ж┴=89.61, ж┬=112.57, ж├=108.87' volume_change=0.00% optimizer_steps=18 optimization_time=0.1s a_change=0.00% b_change=0.00% c_change=0.00% alpha_change=0.00бу beta_change=0.00бу gamma_change=0.00бу" Temp="'a=16.627, 20.268, 20.000 89.61, 112.57, 108.87' 'a=16.627, 0.00% 18 0.1s 0.00% 0.00% 0.00% 0.00бу 0.00бу 0.00бу 2000.0" pbc="T T T"
Mg       2.01212161       3.84367717      -4.77664133      -1.61091777      -4.04345995       2.56538288
Al      -9.91812659      -4.36634736       9.70981850      -0.44816043       6.04142841      -4.43189257
Mg       8.78654470      12.57433329       8.88541887      -3.30048936      12.75964922       3.68411700
Al       8.64970449       0.76194695       1.65966173       0.34589443      -0.31293171      -0.08765935
Al       5.68114199      13.41238703       9.47358844       4.69247066       2.92193567      -5.16230883
V        3.16648922      -0.17465890       7.96075323       0.32120248     -17.36662164       3.43236087
6
Lattice="4.342846016927774 0.0 0.0 1.900674660889081 5.3076160311276235 0.0 2.1185472832317713 0.8707136235257532 5.547583892465488" Properties=species:S:1:pos:R:3:momenta:R:3 Combination=Al-Mg-V Element_Counts=Al:4/Mg:1/V:1 Total_Atoms=6 Num_Element_Types=3 Allocation_ID=411 Min_Distance=2.17 comment="initial_cell='a=6.995, b=9.080, c=9.667 | ж┴=75.19, ж┬=69.33, ж├=70.30' final_cell='a=6.995, b=9.080, c=9.667 | ж┴=75.19, ж┬=69.33, ж├=70.30' volume_change=0.00% optimizer_steps=2000 optimization_time=12.9s a_change=0.00% b_change=0.00% c_change=0.00% alpha_change=0.00бу beta_change=0.00бу gamma_change=0.00бу" Temp="'a=6.995, 9.080, 9.667 75.19, 69.33, 70.30' 'a=6.995, 0.00% 2000 12.9s 0.00% 0.00% 0.00% 0.00бу 0.00бу 0.00бу 2000.0" pbc="T T T"
Mg       5.06864323       0.01443396       2.91721506      -7.35152613       3.35993121     -10.58645600
V        5.26841581       5.86096990       0.41252305      18.96389987     -18.72007682       6.85257910
Al       1.18737729      -0.79892543       4.05720600     -15.58604085       6.49703725      -7.53045584
Al       3.38310924      -2.11786422       2.45804464      -7.32773336       5.18614967      -0.66079261
Al       3.10645479       3.73244532       0.32937412       6.68536828       3.79311111       7.59117883
Al       5.11071216       6.99769539       3.77031203       4.61603218      -0.11615241       4.33394652
6
Lattice="14.223022764370246 0.0 0.0 -2.611192114319681 14.79111080546769 0.0 -1.3938317808673613 -1.1711129575241157 5.482317739579336" Properties=species:S:1:pos:R:3:momenta:R:3 Combination=Al-Mg-Cr Element_Counts=Al:1/Mg:1/Cr:4 Total_Atoms=6 Num_Element_Types=3 Allocation_ID=114 Min_Distance=2.145 comment="initial_cell='a=20.064, b=21.188, c=8.149 | ж┴=99.07, ж┬=103.96, ж├=100.01' final_cell='a=20.064, b=21.188, c=8.149 | ж┴=99.07, ж┬=103.96, ж├=100.01' volume_change=0.00% optimizer_steps=26 optimization_time=0.1s a_change=0.00% b_change=0.00% c_change=0.00% alpha_change=0.00бу beta_change=0.00бу gamma_change=0.00бу" Temp="'a=20.064, 21.188, 8.149 99.07, 103.96, 100.01' 'a=20.064, 0.00% 26 0.1s 0.00% 0.00% 0.00% 0.00бу 0.00бу 0.00бу 2000.0" pbc="T T T"
Cr       4.95314694       5.55846631       1.32219944       2.24491539      -7.88460492      -1.51854890
Cr       0.99805363       2.86166796       6.63315554       4.27061475       0.96943928       4.92063550
Cr       2.72769142       5.74619646       3.04267809      -9.23565399      -6.99499531       2.62784631
Mg       5.26851172       5.55971315      -3.15648776      -0.26826393       2.67096070      -5.72387198
Cr       2.39436304       3.10401232       2.87543871       4.59491241       9.98833295      -4.52106197
Al       1.91237993       4.36836408       4.94171308      -1.60652464       1.25086730       4.21500103
6