50
Lattice="30.0 0.0 0.0 0.0 30.0 0.0 0.0 0.0 30.0" Properties=species:S:1:pos:R:3 energy=-153.5447951938163 minima_index=1 pbc="T T T"
Al      15.67396821      12.60726889      15.25583117
Al      19.34727718      16.50923017      11.74806286
Al      15.75786398      13.00047908      12.63803794
Al      15.47783965      17.86279264      10.62488660
Al      14.46510985      14.97440302      16.47521233
Al      13.10857014      16.73715298      10.58482131
Al      14.97843878      15.49675411      11.93713327
Al      19.24457564      15.85886523       9.17662181
Al      17.13064158      17.58477259      15.69128277
Al      15.61520065       9.14976369      18.23428629
Al      18.13134545      12.33270629      13.75556708
Al      16.76066542      16.14380213      18.01102788
Al      19.77437759      14.20472991      15.62587959
Al      16.23055173      14.16492679      19.94771333
Al      13.03064783      16.96994220      15.09348438
Al      19.16771349      16.55851667      14.38094865
Al      12.32841964      15.76027741      12.85495391
Al      13.36260678      11.76304986      13.66725825
Al      15.52792053      13.22321899      10.03303811
Al      11.26316938      13.68312123      17.68754588
Al      18.26682412      13.54804245      10.95788055
Al      13.72781765      13.63039769      18.71057557
Al      17.24863770      11.55829700      18.68882888
Al      17.30057113      14.35509316       8.49688968
Al      18.57331661      14.10482532      18.28731490
Al      17.10450953      11.17840351      11.26408432
Al      15.88345264      10.41166750      13.56019513
Al      14.16840426      10.16902246      15.66442571
Al      17.42274532      14.94199650      13.17875601
Al      16.81601219      10.28066661      16.17817220
Cu      14.23240607      17.77758746      12.90262660
Cu      16.91645292      17.44691880      12.80427295
Cu      19.10859717      16.30455564      16.96609705
Cu      13.96689633      14.23490950      14.06274724
Cu      20.64082563      14.50009598      10.72868449
Cu      15.04708902      15.64662563       9.23086323
Cu      11.90111199      14.67066290      15.34611866
Cu      14.84315237      11.52125850      17.71354127
Cu      16.18137999      13.56425520      17.57168361
Cu      14.79127149      17.48572997      16.87849941
Cu      18.11489532      12.45878942      16.35809316
Cu      17.26072457      14.85879707      15.73071526
Cu      13.21666386      12.67224493      16.15837940
Cu      17.12974694      15.86464070      10.63952562
Cu      15.46209431      16.18928803      14.45690841
Cu      19.89826600      14.22566089      13.06015633
Cu      12.43185039      16.04611396      17.50991237
Cu      13.31842211      13.53790467      11.61491086
Cu      14.44221613      16.03227509      19.01535604
Cu      14.44416661      11.16989346      11.36417812
50
Lattice="30.0 0.0 0.0 0.0 30.0 0.0 0.0 0.0 30.0" Properties=species:S:1:pos:R:3 energy=-153.56989685201094 minima_index=2 pbc="T T T"
Al      15.55213289      12.47721554      15.23734098
Al      19.21519126      16.23516655      11.45678054
Al      15.57113964      12.89826741      12.63335120
Al      15.33294751      17.80733654      10.57564508
Al      14.31865942      14.83018503      16.44318997
Al      12.91933513      16.86483343      10.68577802
Al      14.77832650      15.38256416      11.85301920
Al      19.04038340      15.47987844       8.92835063
Al      17.11737660      17.38783405      15.41731965
Al      16.00289827       9.31009519      18.62320907
Al      17.96296512      12.21431694      13.75381007
Al      16.79448265      16.06726034      17.81143074
Al      19.67535601      13.92541392      15.37206688
Al      16.29975558      14.17367904      19.85000255
Al      12.94373704      16.84110710      15.02691946
Al      19.15016615      16.30079464      14.10684870
Al      12.17937560      15.62430158      12.83299593
Al      13.23458323      11.58977304      13.64630450
Al      15.34625528      13.19986602      10.01543884
Al      11.34944665      13.70860870      17.82280872
Al      18.08750914      13.45372741      10.64779070
Al      13.80982567      13.51363899      18.77657526
Al      17.24242535      11.69624301      18.84040857
Al      16.84369230      14.37041382       8.22624550
Al      18.58510326      14.03787145      18.15646150
Al      16.98214991      11.12646580      11.26864653
Al      15.74259882      10.28891835      13.53862174
Al      14.05293873      10.07680535      15.66085543
Al      17.31717446      14.78789940      12.93541864
Al      16.67468175      10.12922183      16.17589726
Cu      14.21908580      17.68173754      12.92661842
Cu      16.81623988      17.26754845      12.66600401
Cu      19.10712629      16.10273632      16.67165043
Cu      13.76351776      14.06773071      14.04320813
Cu      20.55146396      14.22616534      10.48411916
Cu      14.67688360      15.60691427       9.20859109
Cu      11.76226132      14.58521266      15.40431089
Cu      14.86622110      11.43299182      17.68202551
Cu      16.14387553      13.52992323      17.48831043
Cu      14.80898421      17.34203930      16.69542678
Cu      18.00618748      12.27116518      16.36992167
Cu      17.21089697      14.65346278      15.53276272
Cu      13.10264929      12.53154591      16.17864162
Cu      16.89529352      15.76902536      10.43035576
Cu      15.36956190      15.93376563      14.35630464
Cu      19.75037523      13.94219465      12.78649639
Cu      12.41011789      16.09627896      17.48788746
Cu      13.13764095      13.37873594      11.61024406
Cu      14.48713563      15.95941747      18.88812973
Cu      14.33324472      11.06180103      11.31867784
50
Lattice="30.0 0.0 0.0 0.0 30.0 0.0 0.0 0.0 30.0" Properties=species:S:1:pos:R:3 energy=-154.37311334726823 minima_index=3 pbc="T T T"
Al      15.40406416      12.51878831      14.95379612
Al      18.83936939      15.63852327      10.81755640
Al      15.49089067      12.66166127      12.29377773
Al      14.96273004      17.10208975      10.13011122
Al      13.62666828      14.41494036      16.11278946
Al      12.75222474      17.13347310      11.51010445
Al      14.46728918      15.22379196      12.08242481
Al      17.99131852      14.27533197       8.57916689
Al      17.06328784      17.13768071      14.58706687
Al      14.84933165       9.94963584      18.58749675
Al      17.86713804      12.06845525      13.68727443
Al      16.78075651      16.49475697      17.16490365
Al      19.80880586      13.76622420      15.09822373
Al      16.42120861      14.89947642      19.40341137
Al      12.71064734      16.25812181      14.14677912
Al      19.30234385      16.04050645      13.52181020
Al      11.70270492      14.80538113      12.12724713
Al      13.18813382      11.07868943      13.27391008
Al      15.25640156      12.77056083       9.59588880
Al      11.81244622      13.68972415      17.68111125
Al      17.83980059      12.79801507      10.76372426
Al      14.09621526      13.64546942      19.12953244
Al      16.51956871      12.19805307      18.62401134
Al      15.41578751      15.16556968       8.00968237
Al      18.46119760      14.36613123      17.78147539
Al      17.02509415      10.46689110      11.44267024
Al      15.67465381      10.12797490      13.65742366
Al      13.82627092       9.99292451      15.68089886
Al      17.24240257      14.57256921      12.80648579
Al      16.33441196      10.33565065      16.38475059
Cu      14.80067372      17.53379876      13.25429171
Cu      16.83180547      16.95228961      11.94558429
Cu      19.20855365      16.23603115      16.10347922
Cu      13.31695778      13.58820623      13.69128858
Cu      20.10469055      13.63344504       9.97681413
Cu      13.47545031      14.91819081       9.79263495
Cu      11.24228009      14.34449428      15.05329576
Cu      14.24654434      12.04512880      17.20599729
Cu      15.89115300      14.06453790      17.04553745
Cu      14.53126221      17.05610034      15.85764726
Cu      17.80207030      12.37948654      16.30627484
Cu      17.50794259      14.61407059      15.29992522
Cu      12.37093529      12.14013603      15.54494124
Cu      16.32137935      14.93946523      10.40185109
Cu      15.30719700      15.19541628      14.44139466
Cu      19.69662266      13.64001408      12.47928538
Cu      12.10701998      16.24165865      16.75602162
Cu      13.14818943      12.85337188      11.21793383
Cu      14.32701453      15.96104675      18.09221867
Cu      14.49251626      10.62832354      11.06539450
