50
Lattice="30.0 0.0 0.0 0.0 30.0 0.0 0.0 0.0 30.0" Properties=species:S:1:pos:R:3 energy=-153.05763227887618 minima_index=1 pbc="T T T"
Al      14.58305971      13.03207721      15.75566019
Al      18.62589693      17.10707579      12.25770389
Al      14.60016382      13.82156655      13.27954930
Al      14.84320988      18.91826421      11.42628585
Al      13.97623466      15.86652762      17.16757412
Al      12.38408151      18.09884078      11.53903518
Al      14.15632700      16.37343847      12.23393304
Al      18.61274009      16.82811747       9.59210096
Al      15.90728296      17.70363349      16.11941477
Al      13.35248358       9.92916850      19.77131590
Al      17.07827383      12.98629680      14.41169691
Al      16.14358022      16.50129979      18.58641829
Al      18.79868247      14.16524187      16.06939205
Al      15.67296932      14.72293130      20.51945167
Al      12.80673874      17.90938996      16.03873027
Al      18.10914572      16.51487673      14.80975271
Al      11.93488378      16.68589460      13.78766857
Al      12.45133618      12.15835205      13.70711010
Al      14.92265855      14.46310023      10.53671702
Al      10.54765428      14.54377485      18.61466007
Al      17.73560936      14.53654269      10.61278385
Al      13.01439535      14.52122635      19.72431851
Al      14.52709095      12.30687920      20.24364546
Al      16.30319192      15.82932168       8.62070653
Al      17.62723852      14.26832248      18.57941561
Al      16.47926002      12.49977668      11.83207956
Al      14.96292139      11.21423442      13.79775218
Al      12.40545453      11.45470406      16.22804257
Al      16.64218024      15.29322992      12.97649866
Al      14.54126701      11.24034448      17.76555669
Cu      13.89810408      18.48156891      13.82036777
Cu      16.23306926      17.80749232      13.41243052
Cu      18.31561752      16.43221034      17.30561718
Cu      12.60915212      14.47291279      14.81753301
Cu      20.06932324      15.36674471      11.15997837
Cu      14.15279809      16.97430223       9.73659121
Cu      11.28117561      15.83823674      16.37961944
Cu      12.21980856      12.08809804      18.92220816
Cu      15.07494910      13.81216863      18.19075430
Cu      14.23679500      18.31435094      18.12615174
Cu      16.84494224      12.45108480      16.95895254
Cu      16.35424097      14.99248574      16.18481190
Cu      12.58496553      13.77641620      17.22139000
Cu      16.38956621      16.92310607      10.93535509
Cu      14.58487928      16.07608521      14.69221709
Cu      19.01548341      14.45471613      13.24380096
Cu      12.06696916      16.81692781      18.55455437
Cu      12.40996389      14.43165284      12.16352513
Cu      14.07560868      16.79406464      20.08471291
Cu      13.83657553      12.20092469      11.48445781
50
Lattice="30.0 0.0 0.0 0.0 30.0 0.0 0.0 0.0 30.0" Properties=species:S:1:pos:R:3 energy=-153.44079031816506 minima_index=2 pbc="T T T"
Al      14.63220682      13.51421078      15.58677389
Al      18.65784819      16.69899300      12.52279665
Al      14.47629873      13.67413117      13.01014757
Al      14.98659676      18.74221481      11.41236150
Al      13.91797416      16.12965401      17.50963888
Al      12.52686467      17.87036889      11.37570312
Al      14.25344873      16.25114500      12.40923094
Al      18.65850984      16.21475695       9.90968992
Al      15.78044265      17.84043889      16.16251808
Al      14.42595051       9.87701666      19.13501871
Al      16.87128737      12.62877893      14.17800204
Al      16.13646150      16.66941698      18.88130219
Al      18.74652790      14.39660180      16.24697299
Al      15.38795730      14.56907951      20.43946363
Al      13.03079261      18.34245516      16.13760157
Al      18.21994908      16.84059713      15.13106996
Al      11.90016681      16.83775589      13.69631210
Al      11.96359206      12.27364049      13.30608809
Al      14.56696661      14.25200637      10.40956479
Al      10.58304295      15.28158427      18.40397650
Al      17.17550953      14.15532491      11.50530463
Al      12.85624066      14.54159203      19.59387152
Al      15.99249938      11.98779773      19.25625942
Al      16.46086791      15.30269006       8.98043042
Al      17.52457246      14.30327229      18.78315399
Al      15.89947215      11.82651653      11.71502598
Al      14.40686557      11.17846951      13.94466945
Al      12.51374990      11.77767150      15.83824258
Al      16.43478918      15.29313396      13.88667519
Al      14.95100808      11.06503783      16.76011782
Cu      13.94012975      18.47645865      13.77410566
Cu      16.31414480      17.81614284      13.51531135
Cu      18.33949829      16.55341158      17.64880146
Cu      12.39413511      14.42326749      14.53522845
Cu      19.72674327      14.56742946      11.43306714
Cu      14.34704041      16.77798718       9.79531638
Cu      11.63948858      16.21186553      16.18885235
Cu      13.29724789      12.12793094      18.50680047
Cu      14.96434094      13.90402644      18.05916760
Cu      14.37596761      18.57260659      18.34294991
Cu      16.88030326      12.75001236      16.80857352
Cu      16.34567157      15.33013258      16.50626126
Cu      12.49663036      14.01786640      17.04876221
Cu      16.45351608      16.61960290      11.21946198
Cu      14.18491125      16.12901301      14.98375187
Cu      18.83372881      14.36620777      13.71041341
Cu      12.01174489      17.48285051      18.48234662
Cu      12.28411263      14.62377942      11.94224329
Cu      13.85801349      16.81834230      20.11485011
Cu      13.37417091      12.09471302      11.25575086
50
Lattice="30.0 0.0 0.0 0.0 30.0 0.0 0.0 0.0 30.0" Properties=species:S:1:pos:R:3 energy=-153.4497210806109 minima_index=3 pbc="T T T"
Al      14.62818411      13.53022983      15.58986662
Al      18.68541733      16.60906992      12.54860431
Al      14.46753234      13.68558222      13.01175687
Al      14.99517708      18.75786493      11.42774758
Al      13.92501735      16.14228633      17.49046282
Al      12.52377934      17.89064551      11.38282549
Al      14.25018557      16.25260657      12.41304311
Al      18.69204428      16.16946366       9.94409335
Al      15.80988691      17.86730290      16.22291458
Al      14.43479355       9.89898902      19.08369185
Al      16.82772600      12.56605415      14.16403646
Al      16.10954242      16.63374696      18.91307247
Al      18.75118367      14.40962634      16.27074542
Al      15.35967100      14.54026555      20.45746367
Al      13.06736534      18.36121508      16.12755104
Al      18.22356092      16.83627548      15.12925833
Al      11.88973851      16.84807581      13.69120089
Al      11.89992153      12.31013425      13.33350046
Al      14.57700427      14.23806092      10.41444600
Al      10.59713642      15.31360501      18.41880911
Al      17.21211287      14.15205670      11.48226652
Al      12.85769538      14.49759913      19.57736374
Al      16.00271144      12.02290805      19.26590091
Al      16.47904078      15.29621598       9.01599287
Al      17.53298807      14.30464696      18.78345446
Al      15.88875740      11.84836059      11.69784926
Al      14.33024370      11.17861289      13.90706868
Al      12.50305919      11.79459919      15.84414671
Al      16.45566179      15.25041837      13.86654877
Al      14.96817925      11.06425479      16.70375445
Cu      13.91300102      18.50616244      13.75097605
Cu      16.27898901      17.77970151      13.55680701
Cu      18.30577601      16.58790490      17.64597875
Cu      12.41446814      14.46105541      14.52539129
Cu      19.76130931      14.48798215      11.45427007
Cu      14.36223325      16.77234419       9.82193771
Cu      11.64072108      16.23738176      16.18318219
Cu      13.32281773      12.14620919      18.43819874
Cu      14.98629185      13.93318398      18.04699274
Cu      14.37690133      18.57657661      18.36086629
Cu      16.89385612      12.75145308      16.79747735
Cu      16.35198888      15.34482852      16.48136062
Cu      12.48368732      14.04781548      17.02804915
Cu      16.47150694      16.63427058      11.24720104
Cu      14.22177503      16.17305659      14.96499571
Cu      18.83206500      14.26605534      13.73154583
Cu      12.00892631      17.50736065      18.44561481
Cu      12.28490758      14.61791206      11.93799914
Cu      13.80516279      16.79826930      20.10150912
Cu      13.33829748      12.09970316      11.30020962
50
Lattice="30.0 0.0 0.0 0.0 30.0 0.0 0.0 0.0 30.0" Properties=species:S:1:pos:R:3 energy=-154.24114945564415 minima_index=4 pbc="T T T"
Al      14.65952037      13.67606092      15.62130467
Al      18.60336729      16.12919531      12.68963137
Al      14.33205749      13.71332756      13.03059238
Al      15.07349725      18.85316797      11.31844255
Al      13.86963488      16.08416526      17.47639989
Al      12.61561108      17.69663182      11.31504558
Al      14.53711332      16.28288361      12.24295138
Al      18.61611070      15.09178328      10.24415078
Al      15.72056444      18.08612697      15.84254733
Al      14.80227029       9.67213266      18.42272783
Al      16.72706629      12.43257340      14.17417572
Al      15.66307444      16.00254561      19.56227136
Al      18.86821012      15.44172832      17.14768026
Al      15.56581794      13.36036338      20.53520740
Al      13.10361800      18.40152389      15.96814159
Al      18.13765088      17.03804938      15.23710396
Al      11.95714811      16.97038299      13.75496744
Al      11.92419070      12.44174340      13.14641645
Al      13.91506331      14.54413420      10.12220482
Al      11.31435659      15.67799924      18.71431303
Al      16.28455806      14.41346123      11.29579849
Al      13.25544004      14.27210596      19.70378588
Al      16.50055440      11.72173588      18.67811241
Al      16.32482505      15.30095601       8.84036371
Al      17.61596538      14.27822823      19.04168385
Al      16.04277985      11.84196268      11.68242336
Al      14.27448723      11.10077618      13.62524714
Al      12.70048092      11.84433030      15.66625749
Al      16.44449824      15.16837107      13.94758016
Al      15.38627805      11.18451189      16.26440172
Cu      14.08269242      18.48786006      13.61490400
Cu      16.47110023      17.71191447      13.29904154
Cu      17.18215007      17.33434178      17.93351250
Cu      12.32118482      14.46229564      14.64073461
Cu      18.36890926      13.51134384      12.44431407
Cu      14.55220950      16.98587385       9.65964675
Cu      11.62057169      16.26800665      16.23530429
Cu      13.73119584      12.00535110      18.21462011
Cu      15.23004911      13.90854207      18.04411953
Cu      14.74782579      18.27384220      18.30755918
Cu      17.22840160      13.26530745      16.59787581
Cu      16.28602852      15.58609051      16.50940618
Cu      12.49264625      13.95471526      17.14854935
Cu      16.81233500      16.94243860      10.88861166
Cu      14.19055484      16.16727871      14.86458343
Cu      18.68749569      14.37058975      14.82052298
Cu      12.10516871      18.03579966      18.22527737
Cu      12.24027604      14.93852257      12.08340230
Cu      13.29590179      16.87230887      20.01898006
Cu      13.51749211      12.19461835      11.13710430
50
Lattice="30.0 0.0 0.0 0.0 30.0 0.0 0.0 0.0 30.0" Properties=species:S:1:pos:R:3 energy=-154.24874670202058 minima_index=5 pbc="T T T"
Al      14.68812823      13.68952433      15.62085272
Al      18.59483790      16.11027475      12.70086721
Al      14.32469063      13.69119682      13.02919437
Al      15.09536294      18.83757957      11.32046937
Al      13.90724162      16.13058118      17.46396332
Al      12.61899913      17.72072846      11.30227191
Al      14.49545001      16.26850994      12.25347011
Al      18.57096245      15.06012229      10.25421385
Al      15.74913536      18.10308509      15.86504450
Al      14.75082135       9.69851873      18.43909536
Al      16.73435144      12.41483067      14.19260683
Al      15.66611143      16.04306744      19.57082742
Al      18.87996787      15.39263968      17.16593234
Al      15.52010410      13.36731473      20.53997024
Al      13.13825504      18.44189474      15.97053124
Al      18.15909166      17.01424536      15.24491162
Al      11.96445142      16.97158191      13.73507179
Al      11.95146110      12.41303662      13.13615759
Al      13.84540269      14.53259217      10.12144523
Al      11.30184460      15.68214667      18.69034791
Al      16.22249346      14.38237203      11.25840938
Al      13.23409600      14.29531510      19.70021146
Al      16.48144951      11.74000205      18.69691608
Al      16.30235501      15.28389355       8.81787358
Al      17.60238902      14.28798310      19.08456565
Al      16.10307394      11.81554867      11.68588657
Al      14.32191151      11.07896679      13.61706730
Al      12.72275209      11.86667587      15.65183268
Al      16.43513532      15.15044481      13.92124823
Al      15.38889915      11.18715230      16.26620297
Cu      14.07430462      18.50033911      13.60417710
Cu      16.45271897      17.69390260      13.33405156
Cu      17.21570659      17.32835129      17.94162249
Cu      12.35199666      14.46986555      14.62769789
Cu      18.31495828      13.49681517      12.42991413
Cu      14.54922218      16.95603189       9.67618068
Cu      11.66649479      16.28863359      16.21588259
Cu      13.73729575      12.04822500      18.20067247
Cu      15.23316428      13.95416704      18.05425849
Cu      14.75984886      18.31626352      18.32158984
Cu      17.23320632      13.24847979      16.62816453
Cu      16.32035620      15.57783836      16.49411429
Cu      12.52597191      13.99264787      17.12791990
Cu      16.78758688      16.90465501      10.92893578
Cu      14.20839845      16.19757020      14.86956430
Cu      18.66187350      14.34342469      14.82540446
Cu      12.07621121      18.03857464      18.18788124
Cu      12.19938587      14.91966660      12.09193661
Cu      13.28190917      16.89435402      19.98440059
Cu      13.57816355      12.15836861      11.13817223
50
Lattice="30.0 0.0 0.0 0.0 30.0 0.0 0.0 0.0 30.0" Properties=species:S:1:pos:R:3 energy=-154.25537782185938 minima_index=6 pbc="T T T"
Al      14.69556490      13.64232539      15.62784403
Al      18.60654792      16.15598187      12.67411780
Al      14.37160786      13.69120572      13.03709883
Al      15.03662848      18.85649275      11.31691654
Al      13.93041025      16.14194636      17.46571799
Al      12.58024866      17.67642535      11.30705486
Al      14.51032999      16.25623515      12.21589303
Al      18.56691298      15.13069250      10.22483617
Al      15.73528010      18.07556311      15.86548983
Al      14.76484531       9.68298847      18.48964331
Al      16.76723059      12.40665558      14.22524021
Al      15.62569854      16.01363797      19.63313353
Al      18.84658309      15.40046823      17.17725063
Al      15.49666980      13.35157246      20.55302823
Al      13.12987219      18.40922425      15.95655202
Al      18.14807399      17.00486798      15.22921206
Al      11.96979035      16.91392585      13.73770596
Al      11.98084330      12.40728625      13.10893331
Al      13.86959785      14.57784172      10.04526917
Al      11.31661812      15.74377118      18.69248064
Al      16.23114758      14.35576513      11.19865427
Al      13.22215599      14.31339419      19.69983050
Al      16.46871878      11.72921433      18.72118817
Al      16.27279400      15.38013978       8.80227266
Al      17.58221812      14.28297293      19.10070082
Al      16.13041299      11.80127907      11.73824560
Al      14.31502988      11.08885031      13.63940872
Al      12.70617565      11.86383344      15.66171829
Al      16.46471461      15.15193051      13.86291863
Al      15.37497760      11.15451142      16.29270246
Cu      14.05749693      18.46651768      13.59690116
Cu      16.44605517      17.70655797      13.32187810
Cu      17.13581896      17.26265592      17.95806000
Cu      12.36755755      14.43943229      14.63102428
Cu      18.32226295      13.54277318      12.43868343
Cu      14.49937230      17.02487392       9.63978986
Cu      11.68333931      16.27348105      16.22669676
Cu      13.73857485      12.04027923      18.21779854
Cu      15.22854360      13.95129656      18.05664850
Cu      14.76643736      18.32046543      18.34982299
Cu      17.24204065      13.22004035      16.65833806
Cu      16.31781920      15.53935668      16.43735715
Cu      12.54893089      13.99947276      17.14400731
Cu      16.75177326      16.92759698      10.91405992
Cu      14.22852880      16.15678962      14.84899133
Cu      18.65676920      14.34911294      14.84468850
Cu      12.13096828      18.08815431      18.21458591
Cu      12.25321524      14.88237839      12.06050546
Cu      13.28104633      16.92255390      20.02637644
Cu      13.62574972      12.22521161      11.11272803
50
Lattice="30.0 0.0 0.0 0.0 30.0 0.0 0.0 0.0 30.0" Properties=species:S:1:pos:R:3 energy=-154.29505818108177 minima_index=7 pbc="T T T"
Al      14.65716543      13.67612267      15.67510224
Al      18.67537053      16.18815214      12.72481173
Al      14.34564051      13.71853841      13.10515924
Al      15.09710221      18.82841046      11.29816757
Al      13.97103019      16.10625856      17.45524422
Al      12.59256075      17.65663276      11.23335123
Al      14.46534743      16.25327861      12.20374192
Al      18.49101124      15.05101048      10.29183076
Al      15.71159311      18.05914571      15.85845017
Al      14.78516357       9.71416696      18.52137279
Al      16.72570540      12.47395554      14.28810522
Al      15.64968196      15.99183757      19.66460438
Al      18.86719642      15.42626839      17.18153114
Al      15.54229893      13.29241644      20.54040471
Al      13.11464664      18.43113665      15.92504528
Al      18.15693496      17.05662791      15.23814356
Al      11.96293712      16.95265451      13.71911214
Al      12.01616764      12.38269755      13.08655946
Al      13.64040276      14.72555297      10.01843415
Al      11.33409073      15.70254538      18.70734352
Al      16.01787455      14.22511856      11.05434341
Al      13.28361673      14.31294891      19.70380026
Al      16.54587379      11.70646561      18.72378507
Al      16.33329698      15.36445882       8.72617041
Al      17.64149118      14.28408691      19.13441591
Al      16.20549984      11.72273893      11.82200321
Al      14.33362742      11.09424820      13.66339109
Al      12.70160330      11.86820212      15.66319836
Al      16.44305173      15.21036531      13.75334889
Al      15.38185222      11.18287182      16.32191515
Cu      14.05646480      18.47615064      13.56539271
Cu      16.44253823      17.74904137      13.33878913
Cu      17.10328570      17.22637153      17.93008431
Cu      12.31457141      14.43136192      14.65569290
Cu      18.16034640      13.60353467      12.41898002
Cu      14.59013685      17.02965497       9.62052341
Cu      11.70916553      16.27008942      16.22325495
Cu      13.76623846      12.07020502      18.23350808
Cu      15.31080396      13.95333952      18.06672903
Cu      14.75262793      18.31078512      18.33744540
Cu      17.31009771      13.21061741      16.70487786
Cu      16.35719213      15.50738121      16.35337329
Cu      12.51133932      13.98031202      17.16662956
Cu      16.74251530      16.76604188      11.02590854
Cu      14.19448246      16.15824010      14.82876049
Cu      18.59645429      14.41129485      14.84251913
Cu      12.14044907      18.03953805      18.17556049
Cu      12.18875051      14.88252540      12.12551603
Cu      13.29876463      16.91429023      20.00121469
Cu      13.76394004      12.35030977      11.08235279
50
Lattice="30.0 0.0 0.0 0.0 30.0 0.0 0.0 0.0 30.0" Properties=species:S:1:pos:R:3 energy=-154.43115941655105 minima_index=8 pbc="T T T"
Al      14.59857999      13.58507392      15.85930380
Al      18.78659218      16.14704959      12.62581480
Al      14.41676287      13.68047382      13.24275804
Al      15.15271891      18.87235873      11.35669102
Al      13.97923319      16.11823887      17.43280990
Al      12.63250246      17.70899839      11.17551945
Al      14.43640290      16.20683343      12.11877115
Al      18.40095080      15.00001574      10.25062448
Al      15.79184677      17.92891162      15.89263363
Al      14.72950780       9.90248837      18.69194594
Al      16.71929001      12.53644727      14.35414946
Al      15.52265961      15.95368288      20.14394550
Al      18.76655853      15.35241092      17.17675198
Al      15.46750912      13.27658503      20.56833138
Al      13.22569750      18.40683522      15.90928515
Al      18.23027958      16.98611183      15.14621456
Al      11.99698582      16.80218198      13.59710622
Al      12.07428285      12.26396389      13.17041289
Al      13.60689120      14.93986347       9.83440350
Al      11.29516293      15.82758769      18.63832389
Al      15.91454784      14.17908070      10.94228314
Al      13.26963465      14.42626080      19.65309874
Al      16.62882948      11.80036699      18.78735354
Al      16.25122067      15.46570349       8.71427728
Al      17.70179337      14.35770049      19.35041775
Al      16.05273090      11.74799706      11.89509858
Al      14.35205664      11.04564759      13.84555325
Al      12.67229254      11.81856592      15.78370312
Al      16.51806899      15.22989889      13.46504021
Al      15.49806219      11.11301668      16.39184101
Cu      14.06267194      18.36495099      13.55022095
Cu      16.48250714      17.76683760      13.33955411
Cu      16.70723143      16.66826293      18.03616598
Cu      12.31431733      14.35908149      14.65245628
Cu      18.11352571      13.50556202      12.32515558
Cu      14.63926551      17.22545844       9.55606542
Cu      11.75455017      16.31407694      16.13951927
Cu      13.97168829      12.31415395      18.21443387
Cu      15.53338945      14.24663955      18.14389072
Cu      14.73185531      18.30545698      18.35887125
Cu      17.36364945      13.19504184      16.76996767
Cu      16.39970856      15.35880615      15.98491624
Cu      12.38891944      14.02709260      17.17045732
Cu      16.73432335      16.76950038      11.01994562
Cu      14.22828621      16.06236848      14.77740680
Cu      18.59512166      14.38025713      14.75982456
Cu      12.11034331      18.14020299      18.09645451
Cu      12.29057409      14.68167629      12.05547480
Cu      13.23250421      17.02919821      19.95676975
Cu      13.65591516      12.60502379      11.07798593
50
Lattice="30.0 0.0 0.0 0.0 30.0 0.0 0.0 0.0 30.0" Properties=species:S:1:pos:R:3 energy=-154.43767835242377 minima_index=9 pbc="T T T"
Al      14.52915941      13.60783861      15.87555699
Al      18.84387687      16.12480703      12.61755617
Al      14.43207942      13.72080142      13.25592449
Al      15.19787360      18.86529660      11.33142528
Al      13.92456223      16.05496006      17.40318253
Al      12.65532169      17.63109704      11.12507725
Al      14.50497561      16.23337885      12.11029062
Al      18.43665432      14.93806788      10.25306118
Al      15.79634809      17.90408801      15.87234267
Al      14.74614310       9.91723335      18.69027907
Al      16.70903038      12.61878983      14.41539481
Al      15.44374451      15.96210792      20.11932899
Al      18.75561701      15.38263032      17.22327790
Al      15.38747518      13.29693089      20.58186054
Al      13.22092358      18.36559771      15.88747316
Al      18.23546659      16.97120784      15.14451850
Al      12.02991034      16.85779096      13.60537256
Al      12.09960965      12.30762874      13.16316756
Al      13.64262007      14.96970489       9.84463167
Al      11.20334673      15.80103821      18.62136171
Al      15.95553748      14.16678724      10.96181560
Al      13.20173960      14.41722926      19.60850978
Al      16.61916028      11.82688988      18.85034029
Al      16.27832118      15.40865572       8.71298022
Al      17.66040836      14.39791529      19.40057819
Al      16.09823141      11.75725708      11.95298402
Al      14.37486976      11.08648612      13.86880035
Al      12.64868396      11.79696135      15.77632964
Al      16.57406673      15.24699324      13.45246271
Al      15.52696903      11.17695290      16.42605808
Cu      14.11072067      18.39564876      13.53510026
Cu      16.52906831      17.77766187      13.31521112
Cu      16.64979199      16.64297839      18.01861871
Cu      12.29938666      14.39555834      14.64368595
Cu      18.16646436      13.48552046      12.36936019
Cu      14.71187655      17.23069674       9.51872780
Cu      11.69140317      16.30082327      16.13397490
Cu      13.92505285      12.31308078      18.20663000
Cu      15.52649064      14.21955533      18.13751557
Cu      14.66527970      18.25239489      18.33048390
Cu      17.42588849      13.19258797      16.83212043
Cu      16.40314037      15.30693500      15.97302611
Cu      12.27359903      13.98393245      17.15152970
Cu      16.79884600      16.75245460      10.99656334
Cu      14.25315475      16.06867425      14.75031719
Cu      18.64245472      14.38800161      14.79576600
Cu      12.04563794      18.10103889      18.05136035
Cu      12.32039002      14.74478495      12.06211795
Cu      13.13469920      17.00463795      19.93416717
Cu      13.69392840      12.62990929      11.09178082
50
Lattice="30.0 0.0 0.0 0.0 30.0 0.0 0.0 0.0 30.0" Properties=species:S:1:pos:R:3 energy=-154.5377016267637 minima_index=10 pbc="T T T"
Al      14.33718372      13.56564022      15.85478905
Al      18.82348267      16.17311656      12.57653934
Al      14.42019450      13.73670248      13.22978131
Al      15.19195642      18.90386410      11.28805255
Al      13.93974649      15.91033011      17.41008550
Al      12.67385515      17.83321975      11.17735557
Al      14.44130953      16.22744476      12.05063086
Al      18.40843681      14.94706081      10.24717562
Al      15.76955545      17.79400340      15.78020473
Al      15.01279702      10.44071612      19.36922044
Al      16.68384787      12.75258259      14.53784249
Al      15.42121915      15.71655813      20.05820717
Al      18.82066249      15.52599524      17.18100563
Al      15.32395893      12.98682985      20.41119718
Al      13.20847327      18.34148437      15.83944011
Al      18.21549483      17.00368991      15.11349915
Al      12.02273520      16.82956826      13.55771062
Al      12.18260361      12.21509630      13.11380975
Al      13.64701457      14.94019885       9.78644881
Al      11.17940464      15.81804037      18.63605854
Al      15.93785834      14.15148072      10.94316849
Al      13.15389607      14.32755557      19.55107364
Al      17.24039916      11.87823542      18.98382517
Al      16.25395292      15.43985922       8.70427564
Al      17.72318416      14.48089507      19.34170807
Al      16.00911497      11.77718756      12.11732628
Al      14.42926478      11.16656293      14.23409384
Al      12.35350005      11.81505658      15.74603075
Al      16.52048899      15.36021931      13.43780065
Al      15.74344963      11.42195926      16.77210385
Cu      14.16544103      18.33743172      13.51874630
Cu      16.61721723      17.89191446      13.22334917
Cu      16.57442598      16.53192867      17.96170675
Cu      12.17749861      14.34831637      14.56499452
Cu      18.07610433      13.53512112      12.40613963
Cu      14.64117811      17.24562619       9.50399434
Cu      11.72033566      16.27587214      16.11124205
Cu      13.66659192      12.26379389      18.08853414
Cu      15.59174577      13.94150713      18.05329095
Cu      14.63861813      18.19896979      18.20317843
Cu      17.73888350      13.24350048      16.86901342
Cu      16.38688385      15.16047211      15.95333620
Cu      12.07044379      13.98454870      17.10963778
Cu      16.74711167      16.75942404      10.96562043
Cu      14.18106635      15.99359748      14.73933283
Cu      18.66764909      14.46515475      14.74691310
Cu      12.06242570      18.07032894      18.01973727
Cu      12.29637909      14.69384533      12.00826289
Cu      13.19614453      16.93960724      19.87673864
Cu      13.69481430      12.63788562      11.02577036
50
Lattice="30.0 0.0 0.0 0.0 30.0 0.0 0.0 0.0 30.0" Properties=species:S:1:pos:R:3 energy=-154.53646845469015 minima_index=11 pbc="T T T"
Al      14.31750450      13.57213672      15.92229959
Al      18.88188056      16.22596121      12.63510909
Al      14.56909698      13.66791217      13.29018267
Al      15.19404897      18.78396138      11.06820912
Al      13.70847899      15.98156313      17.14495585
Al      12.75537136      17.52947640      10.92967524
Al      14.59449021      16.11948132      11.93702708
Al      18.62675882      14.84251086      10.38362814
Al      15.65652944      17.79670405      15.61909337
Al      15.00536434      10.36067231      19.30914739
Al      16.78471311      12.87516074      14.75808326
Al      15.33967952      15.45318658      20.58096800
Al      18.32780355      16.07500139      17.37383944
Al      14.99653078      12.81380767      20.48889022
Al      12.96269578      18.23188684      15.53389716
Al      18.17915067      17.25158476      15.03641195
Al      11.98536572      16.68791923      13.34704615
Al      12.38767362      12.09182434      13.08374290
Al      13.91472108      14.70309545       9.72246126
Al      11.18002259      15.88298901      18.54130902
Al      16.18603796      14.04897257      11.08527224
Al      13.10136746      14.42660894      19.46683846
Al      17.14536702      12.08924414      19.19832057
Al      16.48787142      15.16819656       8.75802000
Al      17.59090545      14.71064815      19.49999245
Al      16.27737293      11.73002481      12.36715551
Al      14.58459062      11.15467019      14.40938361