50
Lattice="30.0 0.0 0.0 0.0 30.0 0.0 0.0 0.0 30.0" Properties=species:S:1:pos:R:3 energy=-153.48374330303665 minima_index=1 pbc="T T T"
Al      14.42484268      13.25824903      15.90157721
Al      18.53807573      17.05433040      12.21712847
Al      14.53208276      13.86354798      13.37017128
Al      14.85170022      18.85066955      11.36451875
Al      13.69092023      15.42626162      17.27475244
Al      12.36621883      18.15419899      11.48742108
Al      14.06858196      16.40503192      12.44747584
Al      18.39827106      16.52667894       9.57211537
Al      16.03010872      17.81281935      16.22952812
Al      13.02644022      10.23812070      18.88767427
Al      16.95104806      13.02642377      14.55751369
Al      15.97079822      16.34471338      18.54674883
Al      18.94393221      14.31363859      16.17483237
Al      15.92097122      14.64924795      20.62270066
Al      13.08655791      17.65598941      15.97333271
Al      18.03179173      16.51834488      14.82103057
Al      11.67954541      17.06983724      13.72968801
Al      12.21850033      12.52720209      13.93608017
Al      14.65688473      14.37947828      10.66647388
Al      11.19373473      14.57803687      18.52876253
Al      17.39188129      14.21759851      10.46828671
Al      13.37368204      14.55536912      19.97797180
Al      14.76757622      12.09516021      20.05868714
Al      16.01635374      15.66439187       8.64203707
Al      17.88316602      14.41642615      18.71973102
Al      16.22671799      12.34869979      12.00465581
Al      14.71439752      11.25509465      14.13671306
Al      12.78861296      11.04461915      16.12736018
Al      16.69133747      15.18692559      12.90033004
Al      15.12829799      11.11900015      17.44576657
Cu      13.90442671      18.60647936      13.77749070
Cu      16.23038652      17.79085908      13.38217756
Cu      18.25645057      16.60235314      17.36916196
Cu      12.72019915      15.05556141      14.72111680
Cu      19.66753068      15.02560435      11.24118415
Cu      13.93786408      16.81107115       9.85869570
Cu      11.14622113      16.02837521      16.40815146
Cu      13.07203449      12.74585748      18.15354929
Cu      15.40100609      13.74209386      18.28487309
Cu      14.27797184      18.23266379      18.15352543
Cu      17.20935392      12.55341159      17.05552643
Cu      16.47303387      14.96957580      16.35141812
Cu      11.66321789      13.48551762      16.27732396
Cu      16.23853411      16.75627848      10.94030279
Cu      14.94703325      16.08265519      14.82325974
Cu      19.01997097      14.38490992      13.52703140
Cu      12.20783473      16.92909915      18.68130344
Cu      12.29738231      14.57451758      12.18441804
Cu      14.20676182      16.89692732      20.27645929
Cu      13.55975568      12.17008240      11.74196503
50
Lattice="30.0 0.0 0.0 0.0 30.0 0.0 0.0 0.0 30.0" Properties=species:S:1:pos:R:3 energy=-154.0068886324177 minima_index=2 pbc="T T T"
Al      14.38574768      13.38021215      15.96917525
Al      18.52372809      17.10206465      12.32240580
Al      14.65013796      13.84406270      13.32324883
Al      15.02420589      18.77820102      11.12551960
Al      13.71966587      15.77626582      17.01157806
Al      12.46475135      18.21722142      11.29626232
Al      14.11339718      16.45566264      12.46512443
Al      18.47072711      16.33914689       9.73191911
Al      16.00836295      17.77299453      16.30141260
Al      13.17981824      10.29692352      19.03775540
Al      16.88573775      13.21039148      14.87699647
Al      16.07084701      16.64438859      18.92971191
Al      18.77736882      14.22503248      16.61337268
Al      15.63741550      14.66151693      20.87006220
Al      13.25958201      17.85827151      15.60846435
Al      17.94831826      16.37923867      14.92614506
Al      11.69631841      17.16011856      13.53401066
Al      12.31263588      12.60481350      13.83564036
Al      14.71957792      14.31126453      10.65873021
Al      11.69949144      14.85951720      18.50921619
Al      17.30398833      13.97055662      10.18152157
Al      13.23675569      13.66436550      20.44484144
Al      15.26065247      12.00616137      19.64142076
Al      16.05500286      15.69873624       8.56836959
Al      17.61605325      14.47058022      19.06951539
Al      16.57096043      12.37484047      12.23847891
Al      14.78912890      11.29710262      14.26101470
Al      12.58290081      11.13751366      16.02098287
Al      16.91987253      15.03559496      12.80121577
Al      14.96565268      10.89768077      17.07773358
Cu      13.90954792      18.89071068      13.40861756
Cu      16.20841150      17.76285798      13.37119640
Cu      18.24280867      16.63045592      17.52809243
Cu      12.82699661      15.15971874      14.53687579
Cu      19.27735493      14.74632158      11.61071453
Cu      13.95735119      16.68305436       9.84513729
Cu      11.18466872      16.15696836      16.08440508
Cu      13.07043724      12.65886071      18.08852563
Cu      14.94665219      14.21549137      18.51358067
Cu      14.21883470      18.21759556      18.10609635
Cu      16.70112078      12.70540667      17.45597286
Cu      16.37942960      15.13249384      16.72565364
Cu      11.73495494      13.66470313      16.20224705
Cu      16.27621363      16.60113760      10.95465479
Cu      15.20031021      15.92664848      14.75086707
Cu      19.12490650      14.24740554      14.01312152
Cu      11.93013601      17.40621387      18.07748322
Cu      12.43159130      14.57248155      12.04207525
Cu      13.63596062      16.16419947      19.66051763
Cu      13.89350945      12.02683336      11.77231919
50
Lattice="30.0 0.0 0.0 0.0 30.0 0.0 0.0 0.0 30.0" Properties=species:S:1:pos:R:3 energy=-154.56320137652904 minima_index=3 pbc="T T T"
Al      14.28158639      13.62539812      15.79270793
Al      18.85550419      16.51333111      12.14868438
Al      14.43075017      13.92152181      12.99091913
Al      14.82919186      19.01987830      12.08254498
Al      14.19305225      16.28196827      16.88944599
Al      12.35069628      18.09381475      11.71389232
Al      14.38615871      16.49898952      12.33571407
Al      18.08061368      15.23327984       9.98872373
Al      16.53487540      17.55655951      16.23479045
Al      13.23286290      10.83418495      19.61687638
Al      16.74560103      13.25414463      14.36182097
Al      16.65612279      16.36969208      18.76901280
Al      18.77792378      13.64065451      16.04788566
Al      16.05853832      14.43570236      20.62271912
Al      13.15146716      18.80462053      16.46428324
Al      18.23225080      15.98785260      14.72806806
Al      11.92321435      17.92026378      14.22009362
Al      12.03520357      13.23628225      13.68905801
Al      13.38157830      14.77723566      10.54696344
Al      12.24394477      15.14797726      18.53982071
Al      15.60752674      13.27965535      10.33430664
Al      13.55928885      13.57470224      20.37031873
Al      15.63008177      12.01756517      19.33597927
Al      15.60738166      15.60140554       9.17181651
Al      17.74607029      13.82087215      18.64900128
Al      16.09697306      11.65431190      12.32664533
Al      14.28981239      11.43691297      14.24108172
Al      12.12692764      11.62802125      15.79564915
Al      16.71242821      15.02707033      12.23020402
Al      14.41649247      10.92078443      17.01432408
Cu      14.49921657      17.94252867      14.53783590
Cu      16.71585997      17.61839628      13.35972628
Cu      18.73867628      15.96915150      17.28615319
Cu      13.08645000      15.68010993      14.60762717
Cu      18.05479661      12.98161895      11.27659423
Cu      14.09070569      17.46433619       9.96021404
Cu      11.60724172      16.69647718      16.47781390
Cu      12.95310366      12.77934843      17.94309165
Cu      14.96101465      14.22808979      18.26669523
Cu      14.97338626      18.30860148      18.28906551
Cu      16.44603912      12.43797764      16.84559354
Cu      16.58801681      14.91543706      16.56826544
Cu      11.76398104      14.20045620      16.14740735
Cu      16.53658542      17.30284831      10.87867274
Cu      15.58845514      15.69309602      14.54190021
Cu      19.02571536      14.04774179      13.27511243
Cu      12.55812444      17.69044392      18.66456750
Cu      11.86876318      15.62215430      12.48767246
Cu      14.27104393      16.19388058      19.73881938
Cu      13.49870437      12.11265261      11.59382010
50
Lattice="30.0 0.0 0.0 0.0 30.0 0.0 0.0 0.0 30.0" Properties=species:S:1:pos:R:3 energy=-154.6803765329642 minima_index=4 pbc="T T T"
Al      14.38657709      13.51799866      15.74547595
Al      18.75615151      17.18111616      12.26048697
Al      14.44866208      13.92017891      12.84725225
Al      14.18480589      19.04393901      12.44010164
Al      14.23728657      16.11894228      16.93669392
Al      12.02656443      17.58565181      11.36211997
Al      14.24510182      16.54163977      12.43776555
Al      18.43346831      15.46997005      10.36907709
Al      16.69052897      17.51793977      16.24119178
Al      13.63665014      10.73467572      19.65309876
Al      16.77757754      13.24110962      14.07924464
Al      16.84791258      16.31830460      18.65172447
Al      18.86987049      13.65056705      15.68552756
Al      16.45047833      14.35775978      20.47639969
Al      12.95739724      18.92420695      16.54504053
Al      18.25575398      16.06166759      14.60041789
Al      12.05706162      17.82550954      13.97171690
Al      11.96239739      13.17329773      13.99966793
Al      13.18577268      15.01897668      10.42731829
Al      12.39728902      15.07388164      18.74057440
Al      14.85747927      12.96391300      10.13730041
Al      13.96702508      13.50260740      20.40813142
Al      15.98580320      11.92355330      19.17449383
Al      15.79589105      15.44038789       9.84849174
Al      18.00657306      13.72271023      18.40174452
Al      15.60440613      11.51087404      12.18072024
Al      14.01325744      11.38380121      14.20743324
Al      12.10989732      11.54694734      16.07750879
Al      16.70008918      15.48620649      12.35683743
Al      14.56626607      10.90955390      16.95534175
Cu      14.42312956      17.84570654      14.87903751
Cu      16.50827429      17.88319245      13.54658680
Cu      18.91585553      15.88955339      17.12498670
Cu      13.08235472      15.55692440      14.63314350
Cu      17.20581292      13.27711851      11.24379336
Cu      14.17871671      17.55352109      10.02560190
Cu      11.73336354      16.69770387      16.44621736
Cu      13.17215781      12.72986264      18.06524633
Cu      15.21188114      14.11503108      18.19940440
Cu      15.02798900      18.24041464      18.11054127
Cu      16.63385978      12.36857335      16.60803552
Cu      16.73070670      14.85472543      16.45425811
Cu      11.93278372      14.18272094      16.40154129
Cu      16.42493185      17.74424529      11.06691798
Cu      15.55249623      15.66980761      14.57503733
Cu      18.96486936      14.31557511      12.81564682
Cu      12.69359236      17.58322872      18.67889412
Cu      11.82085464      15.29285740      12.54710270
Cu      14.52953722      16.10971742      19.69597125
Cu      12.84283746      12.42163201      11.66313620
50
Lattice="30.0 0.0 0.0 0.0 30.0 0.0 0.0 0.0 30.0" Properties=species:S:1:pos:R:3 energy=-154.94394349719687 minima_index=5 pbc="T T T"
Al      14.49728077      13.64075066      15.71920408
Al      18.54460147      17.20914515      11.92776386
Al      14.74153467      13.63987664      12.96563216
Al      14.18861235      18.86818416      12.19476454
Al      14.19207999      16.26801903      16.79340665
Al      11.98398446      17.79688856      11.30757291
Al      14.05230986      16.31195197      12.34933204
Al      18.01669648      15.44636905      10.10032608
Al      16.60152398      17.71092450      16.03304236
Al      13.60614104      11.12501602      19.94153554
Al      17.13798954      13.42525243      14.19665378
Al      16.68875157      16.64962911      18.55026751
Al      19.00721773      13.98077359      15.97235874
Al      16.28918798      14.78436724      20.51031173
Al      12.79696983      18.90549266      16.31558338
Al      18.24835122      16.18902469      14.46732239
Al      11.94049913      17.91300446      13.93375111
Al      12.13123500      13.29833906      13.60748241
Al      12.87479073      14.21562906      11.05638644
Al      12.33192278      15.12607032      18.43662441
Al      14.68213887      12.20150775      10.69192021
Al      13.80016951      13.82029112      20.32333520
Al      16.03658443      12.29081877      19.43773876
Al      15.39182633      14.71788016      10.04998622
Al      17.98614882      14.17555611      18.53548760
Al      16.29082036      11.16972499      12.47822575
Al      15.49208436      11.23965650      14.92433561
Al      12.84594674      11.55220709      15.55803134
Al      16.64170479      15.45852954      12.31036620
Al      14.82795040      10.88713457      17.46361493
Cu      14.36603428      17.91161416      14.66564712
Cu      16.40726741      17.87835408      13.25828783
Cu      18.81334581      16.33737830      17.06279715
Cu      13.04950556      15.56405546      14.54711829
Cu      17.18987070      13.19096875      11.31384495
Cu      13.64172601      16.59228187       9.84180885
Cu      11.61198281      16.60467556      16.29419499
Cu      13.20920311      12.77295821      17.91426365
Cu      15.17063946      14.31587916      18.18038804
Cu      14.85528771      18.46248557      17.89323647
Cu      16.72612720      12.61260121      16.84222976
Cu      16.73738253      15.07459969      16.43579895
Cu      11.89559901      14.03144871      16.13403655
Cu      15.95922071      17.36160502      10.72443830
Cu      15.53376425      15.75021518      14.50150528
Cu      19.01126851      14.54697058      12.54805596
Cu      12.51523644      17.68113311      18.48694563
Cu      11.41213947      15.67110016      12.66680015
Cu      14.36142929      16.34898228      19.54681297
Cu      13.66591456      11.27267796      12.98942519
50
Lattice="30.0 0.0 0.0 0.0 30.0 0.0 0.0 0.0 30.0" Properties=species:S:1:pos:R:3 energy=-155.03017313893824 minima_index=6 pbc="T T T"
Al      15.01159004      13.49496659      15.82096771
Al      18.11175590      17.94595245      12.09588226
Al      15.35862695      13.52128888      13.11661569
Al      13.29649209      18.32644776      11.79689374
Al      13.70666086      15.79966803      16.58874620
Al      11.68150692      15.68786588      10.93836616
Al      14.07887573      15.96428610      12.18995489
Al      18.07857582      16.10862190      10.23112489
Al      15.74812244      18.12607340      15.86422692
Al      14.55824099      11.51915943      20.15998188
Al      17.63584999      14.09295340      14.53558780
Al      15.67524184      17.29243851      18.43196228
Al      19.07546963      15.31045680      16.44873006
Al      15.63707845      15.61121408      20.55803531
Al      11.37958295      18.12123776      15.56320466
Al      17.90827764      16.97720004      14.61483416
Al      11.44541269      16.78629535      13.26147017
Al      12.91431782      12.21089764      13.59216002
Al      13.26503395      13.56529659      11.29159806
Al      11.94265247      14.44739333      18.13770147
Al      15.65390877      12.10934115      10.96323690
Al      13.57807196      13.92336084      20.28747811
Al      16.59300042      13.15453643      19.88984993
Al      15.60279420      14.73084373      10.17621435
Al      17.74180990      15.45808147      18.88344155
Al      17.56236749      11.77793104      12.88829691
Al      16.77645834      11.51763708      15.36631016
Al      14.03075947      11.04893897      15.77766840
Al      16.72252051      15.75088262      12.41310457
Al      15.87190702      11.37940892      17.87744325
Cu      13.57134365      17.47597324      14.51048642
Cu      15.66234432      18.05315380      13.18516209
Cu      18.01960146      17.57597088      17.22806241
Cu      13.23417100      14.78334729      14.20517606
Cu      17.80658534      13.72795595      11.34129756
Cu      13.73616551      16.54063956       9.70671695
Cu      11.27815965      15.50272187      15.58475462
Cu      13.57853567      12.49471912      17.95883138
Cu      15.12429106      14.44347393      18.27955136
Cu      13.47980780      18.25612539      17.15802711
Cu      17.35057491      13.40182043      17.23342985
Cu      16.52655307      15.65088451      16.60700906
Cu      12.33362029      13.21174875      15.89356238
Cu      15.80863990      17.50873092      10.70680770
Cu      15.43034540      15.84174119      14.52073227
Cu      19.18145411      15.46518595      12.76027547
Cu      11.44488485      16.90221180      17.74629442
Cu      11.19939303      14.17677270      13.07976660
Cu      13.45423159      16.30628525      19.17857602
Cu      15.13633415      10.91986128      13.35439186
50
Lattice="30.0 0.0 0.0 0.0 30.0 0.0 0.0 0.0 30.0" Properties=species:S:1:pos:R:3 energy=-155.05663805419775 minima_index=7 pbc="T T T"
Al      15.11424630      13.44090633      15.85225966
Al      18.05466784      17.92718286      12.18190486
Al      15.43715496      13.54517802      13.16865618
Al      13.26364039      18.44675804      12.22279663
Al      13.69164482      15.56955868      16.67124533
Al      11.62455885      15.42422483      10.93483232
Al      13.98672193      15.98298739      12.25272648
Al      17.76626335      16.51276355      10.03465417
Al      15.57284253      18.08566495      16.01740172
Al      14.99132968      12.10383994      20.16698829
Al      17.68828309      14.32181063      14.67432956
Al      15.48211635      17.18021632      18.60814848
Al      19.05654273      15.56677004      16.65881535
Al      15.44190732      15.11402831      20.62880741
Al      11.20535880      17.93882006      15.56831487
Al      17.84123972      17.04059318      14.69977913
Al      11.42118907      16.60638263      13.22733002
Al      13.18386085      12.00712695      13.46981939
Al      13.38413213      13.51003511      11.28154216
Al      11.75425888      14.14980173      17.92256664
Al      15.82754111      12.38214994      10.85830751
Al      13.08354893      13.76925793      20.16193997
Al      17.26998712      13.17049754      19.76815907
Al      15.36113053      15.06438671      10.04088380
Al      17.65956519      15.64337816      19.03275072
Al      17.88122638      12.50072871      12.72240435
Al      17.06242728      11.69567497      15.22343878
Al      14.37080479      10.96129629      15.61940160
Al      16.64084163      15.73786627      12.32494200
Al      16.03901303      11.49318813      17.77720994
Cu      13.46306344      17.27735112      14.66273035
Cu      15.62963705      18.02368968      13.36792316
Cu      17.80237000      17.71786582      17.33217136
Cu      13.31493082      14.64249742      14.23216908
Cu      17.79267351      14.05453969      10.71531535
Cu      13.41367249      16.95606557       9.96583111
Cu      11.31074562      15.30289973      15.51545214
Cu      13.59411977      12.32729710      17.87384015
Cu      15.19510378      14.19140181      18.36360161
Cu      13.29070217      18.04090171      17.24823641
Cu      17.53336452      13.50087721      17.21892789
Cu      16.43687164      15.66773304      16.74302968
Cu      12.41605905      12.94550212      15.73593519
Cu      15.60683406      17.71605333      10.88666692
Cu      15.45596353      15.81818775      14.56781489
Cu      19.04479571      15.31843213      12.61457899
Cu      11.29631353      16.62284999      17.72873187
Cu      11.33033116      13.92379737      13.11440777
Cu      13.29874092      16.07098651      19.17208115
Cu      15.61566164      10.98799671      13.16819853
50
Lattice="30.0 0.0 0.0 0.0 30.0 0.0 0.0 0.0 30.0" Properties=species:S:1:pos:R:3 energy=-155.06754929571306 minima_index=8 pbc="T T T"
Al      15.24865716      13.38762547      15.73282376
Al      17.62040208      18.51601584      12.36938690
Al      15.54589026      13.72527363      13.06522044
Al      12.85166791      18.43049385      12.39870812
Al      13.67992262      15.33152919      16.71970073
Al      11.55169676      15.38766134      11.02768560
Al      13.86550085      16.08683551      12.32591053
Al      17.57572974      17.13645388      10.17913046
Al      15.31595326      18.04708461      16.22837413
Al      15.33294769      11.66710177      19.91999494
Al      17.74089797      14.60293566      14.53788145
Al      15.36424523      16.92622241      18.75176668
Al      19.00416112      15.80879210      16.58107705
Al      15.54462539      14.76749506      20.60335519
Al      10.94857065      17.54872048      15.83060665
Al      17.60821901      17.34874782      14.79806361
Al      11.25696333      16.39725063      13.38770350
Al      13.39556763      11.96468893      13.31182533
Al      13.49549492      13.62912679      11.23738616
Al      11.91351657      13.66032728      17.92374904
Al      16.05574342      12.80436471      10.66340416
Al      13.33497798      13.20633223      20.09579553
Al      17.48118793      13.00961113      19.58329828
Al      15.35731255      15.41885937      10.07591616
Al      17.68283250      15.55008049      19.00531244
Al      18.05662423      12.82906719      12.53166791
Al      17.31946883      11.86847226      14.94589244
Al      14.72657785      10.85996666      15.34212935
Al      16.52105602      16.12053379      12.39638828
Al      16.39036627      11.38815621      17.49625191
Cu      13.24804153      17.17214405      14.83397112
Cu      15.25439732      18.20873128      13.56898181
Cu      17.58999320      17.76596851      17.49192619
Cu      13.33838793      14.55752651      14.21606001
Cu      17.89635685      14.66475913      10.78426542
Cu      13.22010863      17.05056061      10.04747960
Cu      11.31139196      14.95087189      15.58664400
Cu      13.87223592      11.97282559      17.69337530
Cu      15.31973959      13.93339546      18.29200912
Cu      13.07656863      17.69487484      17.48486042
Cu      17.68637909      13.57322375      17.03817097
Cu      16.39554300      15.65537634      16.75921545
Cu      12.61140740      12.69727915      15.63978796
Cu      15.26440892      18.04864625      11.06469117
Cu      15.35972606      15.90041838      14.62121922
Cu      18.97256398      16.12607092      12.68006498
Cu      11.23012256      16.09390943      17.89575690
Cu      11.39065998      13.73080134      13.10552438
Cu      13.29616327      15.58801543      19.26960953
Cu      15.87902648      11.18877485      12.85997970
50
Lattice="30.0 0.0 0.0 0.0 30.0 0.0 0.0 0.0 30.0" Properties=species:S:1:pos:R:3 energy=-155.09472268041154 minima_index=9 pbc="T T T"
Al      15.21786634      13.33972056      15.63424523
Al      17.73525104      18.54705978      12.48563113
Al      15.53096828      13.74431811      12.94875539
Al      13.08029427      18.57803523      12.43075734
Al      13.74022602      15.27209850      16.81228650
Al      11.57831969      15.62447054      11.00014131
Al      13.89728006      16.16152200      12.39211309
Al      17.79647606      16.92687837      10.39551392
Al      15.53782640      17.92964402      16.32075825
Al      15.12396474      11.77443049      19.90240307
Al      17.77952382      14.36136181      14.36663722
Al      15.50359667      16.63215522      18.72264265
Al      19.13999683      15.46627436      16.43883079
Al      15.64244317      14.56267651      20.57063019
Al      11.10085691      18.11583520      15.74963291
Al      17.75738649      17.21495798      14.87682531
Al      11.31058127      16.74570850      13.32357399
Al      13.11219928      12.12305841      13.28384399
Al      13.41536863      13.73906757      11.20300956
Al      11.64631988      13.97775880      17.86352490
Al      15.91004051      12.65211064      10.62584095
Al      13.23464361      13.49747033      19.91793273
Al      17.49898939      12.66077007      19.43710314
Al      15.46756914      15.37484817      10.23906851
Al      17.85180100      15.18966406      18.93473551
Al      17.82990473      12.20418386      12.49178297
Al      17.06752409      11.57835731      14.91788360
Al      14.29988983      10.92899120      15.34619928
Al      16.56783830      16.21552948      12.55850405
Al      16.08614782      11.28065433      17.44780610
Cu      13.33558183      17.15870112      14.90438439
Cu      15.35013694      18.23521293      13.69882522
Cu      17.83485355      17.45334539      17.56528587
Cu      13.37249158      14.58826942      14.22743971
Cu      17.80596734      14.41766811      11.29109159
Cu      13.40166106      17.13813430      10.09403061
Cu      11.41149875      15.35331091      15.52128267
Cu      13.65761190      12.26661740      17.61518482
Cu      15.46749032      13.86179396      18.21347297
Cu      13.25237353      17.75899314      17.44414805
Cu      17.71835231      13.27049956      16.88768326
Cu      16.59451017      15.46031728      16.68144291
Cu      12.32306948      12.90195861      15.61426064
Cu      15.45114023      18.07659100      11.13519262
Cu      15.40074122      15.85158036      14.69289195
Cu      19.07487987      16.18339287      12.75963798
Cu      11.19315188      16.46122431      17.75764711
Cu      11.30935362      14.08641728      13.11767282
Cu      13.12907449      15.91283454      19.27246994
Cu      15.45496568      11.14352614      12.86734126
50
Lattice="30.0 0.0 0.0 0.0 30.0 0.0 0.0 0.0 30.0" Properties=species:S:1:pos:R:3 energy=-155.42327818040764 minima_index=10 pbc="T T T"
Al      15.22589661      13.42165650      15.55933687
Al      17.30464496      18.77422879      12.42372942
Al      15.47931585      13.79902833      12.81375853
Al      12.21127829      18.53480337      12.87574126
Al      13.54230371      15.24262620      16.65197228
Al      12.66136691      13.88196765      11.55561092
Al      13.72341494      16.32640926      12.13980114
Al      18.76727348      17.31837537      10.92920383
Al      14.90010319      18.09226200      16.05987120
Al      15.13129764      12.17108985      20.08291949
Al      17.60789825      14.60993553      14.45531873
Al      14.97982413      16.94896095      18.53505783
Al      18.79302341      16.10016708      16.35417055
Al      15.29377055      15.02957731      20.49481457
Al      10.57849929      17.63520409      15.23493397
Al      17.19940405      17.63266492      14.81022221
Al      11.20034694      15.90511662      12.98888690
Al      13.26038477      11.89544590      13.35205564
Al      14.61847153      12.10428639      10.99894044
Al      11.51531839      13.86375555      17.81631393
Al      16.96323104      13.27218759      10.48286621
Al      13.04320176      13.64104166      19.97200968
Al      17.39228653      13.28688906      19.60998566
Al      17.12909825      15.83435861       9.65783651
Al      17.46819007      15.78926056      18.87159654
Al      18.00854773      12.51988514      12.77772552
Al      17.39550338      11.84490603      15.27446441
Al      14.49238983      10.93442618      15.62393439
Al      16.65597101      16.15173976      12.31703632
Al      16.20858896      11.63385296      17.66143694
Cu      12.98406618      16.91221926      14.72005482
Cu      14.94243961      18.22273026      13.36279025
Cu      17.21810107      17.95811636      17.43236936
Cu      13.25287155      14.48308145      14.02004161
Cu      18.72350216      14.77776479      11.70202513
Cu      14.90576901      14.84575191      10.44349161
Cu      11.22852657      15.06368410      15.45307579
Cu      13.68414536      12.32355781      17.77946975
Cu      15.29906596      14.13710246      18.19394147
Cu      12.61862566      17.66741749      17.13621141
Cu      17.63249558      13.78666048      17.03597552
Cu      16.22517996      15.78491684      16.55671586
Cu      12.51044061      12.79940635      15.67440695
Cu      15.52154981      17.70843200      10.74809597
Cu      15.21004134      15.91466449      14.39665158
Cu      19.07374509      16.60206102      13.43620899
Cu      10.68180800      16.25975057      17.54288541
Cu      11.05157423      13.33829033      13.61235062
Cu      12.71428999      15.93560970      19.03730858
Cu      15.77091680      11.28267315      13.33437741
