50
Lattice="30.0 0.0 0.0 0.0 30.0 0.0 0.0 0.0 30.0" Properties=species:S:1:pos:R:3 energy=-153.26802241085542 minima_index=1 pbc="T T T"
Al      14.92579281      13.46795307      15.64072390
Al      18.48310107      16.87584252      12.23013019
Al      14.47636000      13.56174660      13.10462953
Al      14.57984344      18.55240287      11.24384590
Al      14.14258219      16.19550815      17.45464623
Al      12.19017745      17.50460693      11.41125890
Al      14.11472628      16.08586155      12.36380780
Al      18.43749326      16.24512834       9.64430158
Al      15.62531312      17.92074842      15.85485755
Al      13.90711233      10.19726512      19.70854964
Al      17.17862866      12.75274389      14.31502697
Al      16.38189119      17.08524801      18.51014829
Al      18.77845078      14.41566201      16.01060046
Al      15.84282261      15.21267309      20.39259838
Al      12.77289033      18.09952059      16.04237381
Al      18.11326648      16.95234729      14.85402710
Al      11.77689529      16.45724870      13.78144970
Al      12.14165514      11.94823758      13.37933172
Al      14.67493385      14.04833484      10.49821864
Al      10.83330562      14.57826301      18.50103005
Al      17.37604120      14.19864389      11.25668003
Al      13.22045129      14.78759835      19.72382656
Al      14.88796416      12.61924978      20.16382129
Al      16.23030017      15.25688024       8.77153211
Al      17.78789904      14.64235316      18.61081731
Al      16.18376209      11.90254034      11.96514378
Al      14.64076213      11.16566409      14.22269482
Al      12.60605650      11.72565593      15.97439839
Al      16.43019454      15.26729401      13.64734200
Al      14.74604398      11.54707838      17.55430187
Cu      13.70731481      18.28775478      13.69607752
Cu      16.11381994      17.79368044      13.25548875
Cu      18.60273252      16.68746307      17.30497905
Cu      12.43343471      14.10100644      14.67240505
Cu      19.87063299      14.92857178      11.21610012
Cu      14.00506562      16.46942663       9.75208677
Cu      11.68334467      15.84728538      16.32458876
Cu      12.55453553      12.29396235      18.91619550
Cu      15.32146106      14.06683839      18.16092874
Cu      14.25834299      18.71893161      18.04281354
Cu      17.06957746      12.71992884      16.96862171
Cu      16.46455048      15.43986759      16.33067238
Cu      12.98434724      13.93197570      17.17861892
Cu      16.22676469      16.52293334      11.01962517
Cu      14.14806244      15.94503551      14.92930905
Cu      18.92163064      14.59216490      13.46401645
Cu      12.06040256      17.06170607      18.54317855
Cu      12.26055506      14.32109933      12.02104279
Cu      14.17452657      17.18396384      19.98064044
Cu      13.65218106      11.81610325      11.39049621
50
Lattice="30.0 0.0 0.0 0.0 30.0 0.0 0.0 0.0 30.0" Properties=species:S:1:pos:R:3 energy=-154.93023219655606 minima_index=2 pbc="T T T"
Al      14.65224176      13.68674734      15.25843512
Al      18.06904402      17.20579817      11.45925843
Al      14.81728927      13.36013902      12.64187310
Al      15.41194489      17.74417208      11.53758130
Al      14.52714718      16.40220212      17.93017989
Al      12.81602946      17.33497074      11.46460161
Al      14.24094635      15.81769210      13.15240170
Al      18.36835236      14.75731688      10.14537943
Al      15.22683466      18.41513157      16.16386440
Al      14.61975868      10.51457139      19.17951454
Al      16.63030158      11.76200792      14.30020068
Al      16.40780411      17.89961519      18.69702780
Al      18.87735079      15.24431300      15.79678435
Al      15.82919605      15.48338598      20.14089610
Al      12.43443339      18.35299677      16.15997954
Al      18.75228466      17.11761983      14.00918805
Al      11.71005674      16.93239768      13.80652113
Al      12.28937861      12.39121508      12.96083680
Al      15.94997549      13.43569935       9.96603319
Al      10.84937279      14.29352840      18.28315642
Al      17.61596656      12.80336532      11.98455531
Al      13.18462454      14.79946342      19.70961396
Al      15.01711844      12.89869065      20.20844492
Al      16.35951335      16.28076503       9.42838835
Al      17.55303411      15.44677252      18.15399641
Al      15.39564135      11.14744494      11.56997381
Al      14.11598056      10.98709805      14.14426262
Al      12.42741309      12.25489527      15.85676347
Al      16.91746164      14.56416168      14.08873134
Al      15.07639825      11.53766446      16.74422735
Cu      13.93324718      18.33896810      13.80595102
Cu      16.24586516      17.16006629      14.02255305
Cu      17.69111990      17.55384147      16.38174992
Cu      12.27529925      14.47646666      14.49142046
Cu      19.01024758      14.96727452      12.65250253
Cu      14.22707950      15.30310105      10.56134518
Cu      11.17083110      16.02786999      16.17989125
Cu      13.12784902      12.49846257      18.37878098
Cu      15.28330498      13.91717175      17.90661771
Cu      13.81364020      18.86056700      18.31172066
Cu      17.18714598      13.30275470      16.39561320
Cu      16.08593846      15.70911341      16.11538967
Cu      12.99770400      14.55967319      17.01105946
Cu      16.44904836      15.31058676      11.79468075
Cu      13.73530946      16.35069598      15.49703056
Cu      18.93963325      13.02820957      14.38510735
Cu      12.08217836      16.83494421      18.35164270
Cu      12.19882766      14.76623284      11.95829149
Cu      13.97884019      17.30821918      20.24372891
Cu      13.42399567      12.85393880      10.61225201
50
Lattice="30.0 0.0 0.0 0.0 30.0 0.0 0.0 0.0 30.0" Properties=species:S:1:pos:R:3 energy=-155.31742799088073 minima_index=3 pbc="T T T"
Al      14.65446870      13.63630157      15.23020802
Al      18.08927769      17.28568784      11.39404304
Al      14.93562893      13.34279105      12.61855421
Al      15.38054997      17.73377471      11.60690182
Al      14.18127390      16.32515078      17.91255366
Al      12.76758482      17.24697749      11.46935199
Al      14.20788960      15.76058216      13.09732101
Al      18.44997329      14.81581547      10.19947422
Al      14.98262732      18.40888552      16.30049581
Al      14.85193203      12.51635581      19.93502468
Al      16.74581918      11.84764746      14.36168906
Al      16.11846438      17.73490188      18.74827929
Al      18.83902237      15.45544327      15.81856499
Al      15.68231481      15.17386476      20.05424825
Al      12.28394374      18.13199013      16.27816220
Al      18.51424573      17.29818030      13.99943370
Al      11.63239622      16.78337670      13.78693685
Al      12.48022876      12.23384593      12.88104566
Al      16.08234816      13.46374698       9.97950643
Al      10.69712637      14.06963583      18.20297737
Al      17.71233753      12.89550079      12.05573002
Al      13.01898349      14.53623896      19.63793578
Al      17.18902474      12.92701796      18.94448188
Al      16.42381724      16.33659355       9.45204709
Al      17.60883235      15.49953568      18.22967833
Al      15.52056364      11.11574395      11.58610716
Al      14.31498931      10.91698725      14.19678639
Al      12.43444205      12.08457672      15.69236321
Al      16.88214974      14.70451968      14.16010385
Al      15.15718038      11.59055846      16.85080559
Cu      13.74816493      18.28509056      13.86508393
Cu      16.02782317      17.21444050      14.17208029
Cu      17.52423595      17.68276416      16.44146445
Cu      12.25452570      14.33898325      14.38446780
Cu      19.01226825      15.12136022      12.74088889
Cu      14.29860774      15.29010213      10.51628377
Cu      11.07257838      15.84979371      16.14266411
Cu      12.98784358      12.28494118      18.21284764
Cu      15.12177169      13.94699638      17.82060178
Cu      13.50613708      18.70928000      18.50884177
Cu      17.18843841      13.42175329      16.42797378
Cu      16.01141951      15.75988298      16.26449414
Cu      12.84812204      14.37493376      16.91741710
Cu      16.49681608      15.36096265      11.81660824
Cu      13.67374064      16.21547949      15.44024587
Cu      18.97560078      13.22072925      14.46769974
Cu      11.76759088      16.61787878      18.46638532
Cu      12.25960774      14.62370605      11.85859947
Cu      13.80225726      17.00549215      20.30902538
Cu      13.58301375      12.80320088      10.54551495
50
Lattice="30.0 0.0 0.0 0.0 30.0 0.0 0.0 0.0 30.0" Properties=species:S:1:pos:R:3 energy=-155.46025087696242 minima_index=4 pbc="T T T"
Al      14.95267781      13.67012252      15.25564599
Al      18.16239862      17.65139779      11.10216580
Al      14.84892371      13.79273291      12.55989631
Al      15.63299223      18.17515573      12.06611868
Al      14.19955403      15.93069402      18.16656296
Al      12.88412945      17.83085062      11.87641967
Al      14.32429652      16.20863691      13.21937648
Al      18.31326052      15.18661621       9.97047032
Al      14.70348952      18.30098034      16.99138106
Al      15.13577734      11.72019370      19.32413821
Al      16.68594415      12.01113123      14.04847435
Al      16.21031791      17.24619837      18.98719067
Al      18.79312093      15.79623823      15.68965071
Al      15.76163621      14.64673569      20.03497077
Al      12.03945176      17.53481644      16.68106385
Al      18.11010427      17.56622837      13.75957469
Al      11.66673425      16.74451118      14.03135079
Al      12.50123248      12.39031473      12.62208541
Al      15.88969108      13.99841172       9.85582644
Al      11.00951972      13.12537468      17.85485858
Al      17.53577523      13.27983331      11.84335189
Al      13.20508839      13.55918287      19.38579499
Al      17.49292943      12.65497395      18.73980331
Al      16.27592868      16.83610200       9.42992569
Al      17.85223250      15.26451837      18.28558944
Al      15.06573872      11.46162733      11.66352225
Al      14.01721566      11.35298020      14.52562720
Al      11.64425672      12.37763308      15.40619059
Al      16.80881980      15.12754813      14.11579920
Al      16.03685074      11.38139990      16.67535986
Cu      13.53665085      18.47490631      14.46166531
Cu      15.84372398      17.60050475      14.75831055
Cu      17.46438354      17.80013907      16.69631760
Cu      12.68496105      14.35002939      14.26428641
Cu      18.94152674      15.47578114      12.52282392
Cu      14.22048185      15.88956572      10.62346722
Cu      10.98197743      15.16754602      16.01931197
Cu      13.53249631      11.81837433      17.20904009
Cu      15.37859384      13.68396548      17.73366479
Cu      13.00548814      17.92252887      19.06220540
Cu      17.47659596      13.54423279      16.24488873
Cu      16.13199043      15.77036993      16.50046315
Cu      13.02341657      14.16208462      16.81098769
Cu      16.50376971      15.76896792      11.73637238
Cu      13.82014879      16.16777532      15.62998384
Cu      18.87419742      13.55275038      14.15791010
Cu      11.67810451      15.64458458      18.49764238
Cu      12.26460453      15.07528745      11.94144992
Cu      13.42703859      15.91336798      20.52673696
Cu      13.44976140      13.39409742      10.43428539
50
Lattice="30.0 0.0 0.0 0.0 30.0 0.0 0.0 0.0 30.0" Properties=species:S:1:pos:R:3 energy=-155.4841911317243 minima_index=5 pbc="T T T"
Al      14.79985981      13.35468985      15.34084737
Al      18.46557382      16.63846140      10.53851939
Al      14.77520457      13.61662369      12.64753890
Al      15.89601366      17.57774291      11.29758302
Al      14.59989650      16.51782197      17.98581112
Al      13.21370679      17.48646356      11.57514945
Al      14.73804201      16.16569613      13.26127999
Al      18.35409902      14.01264791       9.94259717
Al      14.52353794      18.94591026      16.51081673
Al      14.98764254      12.27339667      19.67654221
Al      16.60385623      11.62309829      14.47757108
Al      15.96448191      17.78145652      19.69205424
Al      18.33953659      16.05361981      15.63480890
Al      15.68506540      15.03183505      20.18905270
Al      11.95367291      18.25400792      16.35057564
Al      17.87475469      16.98269580      13.12900074
Al      11.79434735      16.98172782      13.74693874
Al      12.45984432      12.34398466      13.10267575
Al      15.78130893      13.14213562      10.01290387
Al      11.04043518      13.91712320      17.92013537
Al      17.40802345      12.54279885      12.08321731
Al      13.17697803      14.28322510      19.43990372
Al      17.40056087      12.98924649      18.96740323
Al      16.46895218      15.72167425       9.08091208
Al      17.44304256      15.59944226      18.20942762
Al      14.83248396      11.10141088      12.37054559
Al      13.84043715      11.00164487      15.03717263
Al      11.71650889      12.77601989      15.65125766
Al      16.90310981      14.54634210      14.00731092
Al      15.88675378      11.49569671      17.13889968
Cu      13.80041010      18.61970204      13.92491099
Cu      16.06558900      17.80502002      14.72072132
Cu      16.78418081      17.81154027      17.11172782
Cu      12.83787502      14.65812852      14.32930397
Cu      19.02962584      14.71036066      12.41726316
Cu      14.37934936      15.34718699      10.56565520
Cu      11.15110900      15.70091878      15.93407991
Cu      13.41756801      12.26950017      17.54167338
Cu      15.35451665      13.99333430      17.82168686
Cu      13.29382956      18.59103440      18.71463855
Cu      17.41420793      13.56305041      16.37330737
Cu      15.84189203      15.65562294      15.98389329
Cu      13.20303452      14.66402919      16.83184933
Cu      16.65406039      15.11775632      11.56289736
Cu      13.67058793      16.69772318      15.55072178
Cu      18.85970108      13.03647244      14.33992756
Cu      12.01289039      16.42516584      18.23315988
Cu      12.40190681      14.95366251      11.97436062
Cu      13.59371339      16.71011716      20.35462483
Cu      13.30622137      12.91103341      10.69514400
50
Lattice="30.0 0.0 0.0 0.0 30.0 0.0 0.0 0.0 30.0" Properties=species:S:1:pos:R:3 energy=-155.48696031809772 minima_index=6 pbc="T T T"
Al      14.62981447      13.30919086      15.34523052
Al      17.69897591      16.39936575       9.94727022
Al      14.11920829      13.80752180      12.69795250
Al      15.47499710      17.62015620      11.11526792
Al      15.44370820      16.38682559      18.08102901
Al      12.95300868      17.88990858      12.02595425
Al      14.59506019      16.32100200      13.32463371
Al      17.13385282      13.83723751       9.35755283
Al      15.47896686      18.82744690      16.74411051
Al      15.46248523      12.08616253      19.61188795
Al      16.06315046      11.46051036      14.11904903
Al      17.05508820      17.90790413      19.43283722
Al      18.51326351      15.46457309      14.94558092
Al      16.65045734      14.72415603      19.92115915
Al      12.79491258      18.56745040      16.89352048
Al      17.61570599      16.70270925      12.62810477
Al      11.98472568      17.46020793      14.42420052
Al      11.81798620      12.78049273      13.58289462
Al      14.53413288      13.28492877       9.93877639
Al      11.57284603      14.32811156      18.59902652
Al      16.47831081      12.41760416      11.63587777
Al      13.97296647      14.34423398      19.71637948
Al      17.76509962      12.40289853      18.42724742
Al      15.34082598      15.78430985       8.89414056
Al      18.09866933      14.96057824      17.65972856
Al      13.86794840      11.30878236      12.39797058
Al      13.32062794      11.14640806      15.17446560
Al      11.64563717      13.22028562      16.21468106
Al      16.53749715      14.34923548      13.64859533
Al      15.72501274      11.25882651      16.89074746
Cu      14.22171413      18.79623978      14.28521871
Cu      16.41187614      17.55972460      14.67372709
Cu      17.62942153      17.31450649      16.81696647
Cu      12.79119229      14.98345953      14.73568756
Cu      18.35621558      14.37474258      11.66482846
Cu      13.56133290      15.64810506      10.76419473
Cu      11.56584546      16.14872640      16.63762244
Cu      13.53043605      12.37457558      17.78685951
Cu      15.72324531      13.74973099      17.70951782
Cu      14.41288349      18.63857041      19.05307285
Cu      17.38051921      13.10512335      15.86688725
Cu      16.11187826      15.39721338      15.86691730
Cu      13.59229665      14.80161297      17.13614511
Cu      15.93729548      15.07392642      11.29047585
Cu      14.11880604      16.80911244      15.83473436
Cu      18.42174737      12.72476319      13.59426268
Cu      12.92692139      16.65479080      18.72465668
Cu      11.87531554      15.45293594      12.54215495
Cu      14.86646100      16.66238732      20.55198742
Cu      12.21965397      13.37072801      11.06820988
50
Lattice="30.0 0.0 0.0 0.0 30.0 0.0 0.0 0.0 30.0" Properties=species:S:1:pos:R:3 energy=-155.4956670169886 minima_index=7 pbc="T T T"
Al      14.59260444      13.26753161      15.41556103
Al      17.96045679      16.34886008      10.50367531
Al      14.20164212      13.53041924      12.72138750
Al      15.59503439      17.50313718      11.33047432
Al      15.33616155      16.59091386      17.80096410
Al      13.02613837      17.72034081      12.15594375
Al      14.53889307      16.01322028      13.35694626
Al      17.50717901      13.77520586       9.69181512
Al      15.21040417      18.98816982      16.48152527
Al      15.63966569      12.40812859      19.64617648
Al      16.03274389      11.29489656      14.30174111
Al      17.12945493      18.15912430      18.71315611
Al      18.74702790      15.00500538      14.88978389
Al      16.75765166      15.09550219      19.79298631
Al      12.47943542      18.53387873      16.87112044
Al      17.44890671      16.56181935      13.22422430
Al      11.63595276      17.17363230      14.31606511
Al      11.87816275      12.59807327      13.59075690
Al      14.83165347      13.19721316       9.98598661
Al      11.64103325      14.31092596      18.62990160
Al      16.62221228      12.19664263      11.75329598
Al      14.07988507      14.58987692      19.68066953
Al      17.93467422      12.93212768      18.52743222
Al      15.75542050      15.72013175       9.10917836
Al      17.96379279      15.47729715      17.41490588
Al      13.90330976      11.03088730      12.55522427
Al      13.35161130      11.05644693      15.32410914
Al      11.68009268      13.08886727      16.28032392
Al      16.57814844      13.97755183      13.76520257
Al      15.79958544      11.36938034      17.09128491
Cu      13.38300266      19.06051589      14.43095558
Cu      15.64717094      18.15625534      14.07936026
Cu      17.35046399      17.53482591      15.89921946
Cu      12.66950801      14.84189074      14.73049568
Cu      18.53333269      14.28742447      12.10090978
Cu      13.76090290      15.49028125      10.78570057
Cu      11.44037256      16.05241162      16.64405282
Cu      13.61850538      12.50769910      17.90132539
Cu      15.76805336      13.98848796      17.63306214
Cu      14.28518564      18.81434109      18.82432405
Cu      17.41354556      13.07843745      16.00667871
Cu      15.98057487      15.54825025      15.57086745
Cu      13.55412782      14.88967396      17.07795394
Cu      16.09947303      14.92140287      11.50008819
Cu      13.86772089      16.89964021      15.65487444
Cu      18.49535879      12.37212746      13.79096907
Cu      12.86765825      16.72528165      18.68128325
Cu      11.96245914      15.20092782      12.43675794
Cu      15.01515119      16.98016975      20.31400231
Cu      12.42849752      13.13474689      11.01530064
50
Lattice="30.0 0.0 0.0 0.0 30.0 0.0 0.0 0.0 30.0" Properties=species:S:1:pos:R:3 energy=-155.5260585556164 minima_index=8 pbc="T T T"
Al      14.57324664      12.99769080      15.29893613
Al      17.96836328      16.48166247      10.48129139
Al      14.17468539      13.57113968      12.51476122
Al      15.61851134      17.65124686      11.28561522
Al      15.28748991      16.49738075      17.80671487
Al      13.13243905      17.91374929      12.34420465
Al      14.61157400      16.03638726      13.32997808
Al      17.50373055      13.89199290       9.65208909
Al      15.11007768      19.01977349      16.56698725
Al      15.71980608      12.28366106      19.63260570
Al      16.46178244      11.21488115      14.35876863
Al      17.04876222      18.03528283      18.81893351
Al      18.66370304      15.08665687      14.81632391
Al      16.75571147      14.98766587      19.76451754
Al      12.41024436      18.38426862      16.98616665
Al      17.32033084      16.65420480      13.22886264
Al      11.65303575      17.18948494      14.39441629
Al      11.92194627      12.70213563      13.48812778
Al      14.80647394      13.43949879       9.83972380
Al      11.67460117      14.13659518      18.57326271
Al      16.60487218      12.28606368      11.66374487
Al      14.08861806      14.41919286      19.66367330
Al      17.98566074      12.89900918      18.47487836
Al      15.79376908      15.89883260       9.05686087
Al      17.88723994      15.47063130      17.37265607
Al      14.07891012      11.06507305      13.23203436
Al      13.33370610      10.82072933      15.79371535
Al      11.73842090      13.01739893      16.16848530
Al      16.53291217      13.91789741      13.68103149
Al      15.88288586      11.27640989      17.06490377
Cu      13.23342972      19.22027122      14.66328661
Cu      15.44669004      18.34205509      14.00597612
Cu      17.02832436      17.44302620      15.83962575
Cu      12.81557482      14.81956911      14.67444818
Cu      18.50398724      14.44333519      12.05904012
Cu      13.77889394      15.74175172      10.74206592
Cu      11.47297177      15.89791909      16.60894762
Cu      13.65182078      12.39127470      17.91678340
Cu      15.76566206      13.84424161      17.60833154
Cu      14.22134757      18.66469953      18.90045146
Cu      17.46347896      13.09379334      15.95469751
Cu      15.84279906      15.32589110      15.57326736
Cu      13.60114764      14.76488224      16.99888878
Cu      16.10354772      15.02696466      11.44201992
Cu      13.91626013      16.92240685      15.63884282
Cu      18.64237833      12.53220851      13.69495773
Cu      12.83848319      16.53129949      18.70804517
Cu      12.01146488      15.39312143      12.44713687
Cu      14.95950588      16.80352008      20.34476433
Cu      12.35872137      13.55117138      10.82415200
50
Lattice="30.0 0.0 0.0 0.0 30.0 0.0 0.0 0.0 30.0" Properties=species:S:1:pos:R:3 energy=-155.57084312614396 minima_index=9 pbc="T T T"
Al      14.64946064      12.97308938      15.45755195
Al      17.98166049      16.36103588      10.44987309
Al      14.08579854      13.46997609      12.51878011
Al      15.66153226      17.59273227      11.21867430
Al      15.30049037      16.52397583      17.79672996
Al      13.22757750      17.96610743      12.33099994
Al      14.63160908      16.00089800      13.29169747
Al      17.49569726      13.79425996       9.64104198
Al      15.12083696      19.05147397      16.50148020
Al      15.84723430      12.44112402      19.78193881
Al      16.18874568      11.19364387      14.35448505
Al      17.00029190      18.27462773      18.55879413
Al      18.62232634      15.03397904      14.80112066
Al      16.76000252      15.10486310      19.78608890
Al      12.38264952      18.35431569      16.90278402
Al      17.32521158      16.59912044      13.18434313
Al      11.69813980      17.22571218      14.38810680
Al      11.48045413      13.13292236      13.28865937
Al      14.76376130      13.38555579       9.84365503
Al      11.69834623      14.02757751      18.42422908
Al      16.57985533      12.24417494      11.66069274
Al      14.06826561      14.46371952      19.66607401
Al      18.08815732      13.03803753      18.50543333
Al      15.79978045      15.79548888       9.01288869
Al      17.91311226      15.53720686      17.36326499
Al      13.31433823      11.29369590      13.77734833
Al      13.91307219      10.51746230      16.18861131
Al      12.00767072      12.75652448      16.02491040
Al      16.45192086      13.87805295      13.68526573
Al      16.18048746      11.28808689      17.31221061
Cu      13.27870317      19.26002052      14.62663756
Cu      15.47443826      18.32561964      13.94201157
Cu      17.03860434      17.45613951      15.77616722
Cu      12.88452316      14.77245672      14.66197845
Cu      18.46290195      14.32921557      12.08687888
Cu      13.80479392      15.73588525      10.71534146
Cu      11.49011478      15.82834657      16.52680115
Cu      13.79295912      12.38039286      18.01125243
Cu      15.82366341      13.89711201      17.67452359
Cu      14.15391270      18.68386451      18.81992506
Cu      17.44333834      13.07751643      15.95141909
Cu      15.88048964      15.32474618      15.58434672
Cu      13.64150457      14.76538653      17.00119367
Cu      16.07329082      14.94833041      11.42199704
Cu      13.96092686      16.91612544      15.60092393
Cu      18.48544341      12.39201258      13.71510248
Cu      12.80570825      16.51460201      18.64940276
Cu      12.05279717      15.53166707      12.43889291
Cu      14.91637611      16.86547286      20.29753935
Cu      12.29702316      13.67564659      10.77993053
50
Lattice="30.0 0.0 0.0 0.0 30.0 0.0 0.0 0.0 30.0" Properties=species:S:1:pos:R:3 energy=-155.5762488297513 minima_index=10 pbc="T T T"
Al      14.84572323      13.05015535      15.83123809
Al      18.49382892      16.04278201      10.83050374
Al      14.66239078      12.89945150      12.70905732
Al      15.93804969      16.99427527      10.98396204
Al      14.69897831      17.02683357      17.44587692
Al      13.30049207      17.14224030      11.58804864
Al      14.75414079      15.58802353      13.08467267
Al      18.45384027      13.32506372      10.34144912
Al      14.31275565      19.20887874      15.70912063
Al      15.46524091      13.51235740      20.25538554
Al      16.64550323      11.30237406      15.19376197
Al      15.86619338      19.19567447      18.16731959
Al      18.66563617      15.39953386      15.26252797
Al      16.04989933      16.25788234      19.79946890
Al      11.68023119      18.15849047      15.83915492
Al      17.33936479      16.55038906      13.34745589
Al      11.57837338      16.49341941      13.53670073
Al      11.98408823      12.37936853      13.15703229
Al      15.79913959      12.55948276      10.19431114
Al      11.39384356      14.18846594      18.14597347
Al      17.39113023      11.96587233      12.42652299
Al      13.50544361      15.21554260      19.52274988
Al      17.77663388      14.15665896      19.15002255
Al      16.69777825      14.96579302       9.16199402
Al      17.48648568      16.32972010      17.50604004
Al      13.87053097      10.99211033      14.36859497
Al      14.23712236      10.70977858      16.94250246
Al      12.16154323      12.57793194      16.09501671
Al      16.72682531      13.84157687      14.11959116
Al      16.24428459      11.96204107      18.13875128
Cu      12.81084204      18.77665845      13.58184490
Cu      15.19937287      18.08586864      13.44747541
Cu      16.55476482      17.90439150      15.61770429
Cu      13.01825490      14.33425679      14.42188387
Cu      18.92240292      14.32121031      12.77160690
Cu      14.43224713      14.81919560      10.49185613
Cu      11.23339804      15.49009820      15.86718455
Cu      13.69169576      12.84174945      18.32476703
Cu      15.57255120      14.53467170      17.90329037
Cu      13.04538430      19.12412767      17.89256469
Cu      17.48721127      13.58711609      16.59152147
Cu      15.76658571      15.57500126      15.58883760
Cu      13.41797171      14.92061964      16.80738358
Cu      16.62136635      14.49926014      11.68228130
Cu      13.62484361      16.77156396      15.07741459
Cu      18.88414784      12.64336524      14.66666204
Cu      12.11884742      16.77266870      17.95056738
Cu      12.46892781      14.62117810      11.97752129
Cu      13.91934552      17.78851029      19.76938883
Cu      13.18434724      12.59632017      10.71343613
