50
Lattice="30.0 0.0 0.0 0.0 30.0 0.0 0.0 0.0 30.0" Properties=species:S:1:pos:R:3 energy=-153.28084031634 minima_index=1 pbc="T T T"
Al      14.89929140      13.48593982      15.43239972
Al      18.52821624      17.01209413      12.49553981
Al      14.56728705      13.71506770      12.88514962
Al      14.64989659      18.84861839      11.59010731
Al      14.16988335      16.03240083      17.62593920
Al      12.26196176      17.75272848      11.54524765
Al      14.17981013      16.30564183      12.51828943
Al      18.51460370      16.54362315       9.88432236
Al      15.70655341      17.85856775      16.21460879
Al      13.80341810       9.79355144      19.04147224
Al      17.12212209      12.77523372      14.01846251
Al      16.37705767      16.77224069      18.82895068
Al      18.78193543      14.32545523      16.08238605
Al      15.70753446      14.63725376      20.36265133
Al      12.89062821      18.10705437      16.36938409
Al      18.16188380      16.96560534      15.13312070
Al      11.80697635      16.70728339      13.87031282
Al      12.13899639      12.18827184      13.08657275
Al      14.60238964      14.39788905      10.34818851
Al      10.78201698      14.39951813      18.34396838
Al      17.23211803      14.43659957      11.38898162
Al      13.13126534      14.38191822      19.64213049
Al      14.96864251      12.04267746      19.81891363
Al      16.32357748      15.69479995       8.91096216
Al      17.66703311      14.23695823      18.59580590
Al      16.11573886      11.98664029      11.63111546
Al      14.60188061      11.24546787      13.90225748
Al      12.55342262      11.77679369      15.65336211
Al      16.43310541      15.41441058      13.83282014
Al      14.78373724      11.25080584      17.00212533
Cu      13.77068602      18.43159687      14.00291776
Cu      16.17411917      17.94455836      13.57509707
Cu      18.55905323      16.45321950      17.58194367
Cu      12.49407269      14.27920092      14.45886588
Cu      19.77317890      14.98444676      11.34446621
Cu      14.11370383      16.90401763       9.90433802
Cu      11.64382895      15.91934064      16.30836476
Cu      12.71823733      12.08076710      18.45253189
Cu      15.17016507      13.70141971      18.00746764
Cu      14.30455414      18.46765097      18.47091660
Cu      17.01084997      12.57880246      16.67690882
Cu      16.45090937      15.32425356      16.47614623
Cu      12.90969898      13.94987057      16.92659844
Cu      16.30040060      16.86074235      11.22378339
Cu      14.15869196      16.04785930      15.08190666
Cu      18.90435146      14.68764059      13.59472654
Cu      12.04731132      16.81425891      18.68296235
Cu      12.32208565      14.64361259      11.88380535
Cu      14.10886866      16.72129577      20.22014108
Cu      13.60224877      12.11433469      11.07056340
