50
Lattice="30.0 0.0 0.0 0.0 30.0 0.0 0.0 0.0 30.0" Properties=species:S:1:pos:R:3 energy=-153.05596810648248 minima_index=1 pbc="T T T"
Al      14.58520473      13.06014044      15.77200995
Al      18.64461226      17.08503371      12.25572682
Al      14.59023520      13.80765611      13.28142756
Al      14.89633011      18.90760694      11.40530578
Al      13.95161208      15.84939224      17.12361785
Al      12.42991514      18.12340750      11.50598683
Al      14.16136240      16.34715596      12.18720995
Al      18.65613920      16.78961316       9.58525218
Al      15.87692928      17.71196023      16.09865567
Al      13.36800871       9.94204212      19.80132770
Al      17.07379184      13.00233812      14.43874878
Al      16.09239423      16.50489547      18.57838466
Al      18.79942325      14.19903934      16.08963723
Al      15.64381999      14.75397643      20.54858106
Al      12.78601430      17.88799071      15.99135879
Al      18.09034927      16.51857755      14.80772772
Al      11.94280496      16.66221259      13.73483118
Al      12.44164593      12.14665667      13.73113059
Al      14.94490463      14.44277746      10.52456141
Al      10.52956712      14.55913807      18.61556945
Al      17.76122344      14.50080496      10.61256529
Al      12.98925075      14.54870867      19.71502737
Al      14.47474496      12.34954220      20.29759783
Al      16.33978507      15.78721710       8.62297431
Al      17.62053163      14.30677178      18.60649880
Al      16.47253626      12.49256195      11.85107063
Al      14.95368328      11.21991389      13.84520691
Al      12.45494452      11.42686122      16.24884635
Al      16.64582043      15.27439997      12.95923793
Al      14.56764856      11.27497882      17.81765431
Cu      13.90436391      18.46481937      13.78842370
Cu      16.24489111      17.78892416      13.38727968
Cu      18.28653658      16.47142250      17.31518535
Cu      12.60256760      14.47489513      14.82332087
Cu      20.09446002      15.33803980      11.16748892
Cu      14.20931813      16.98260714       9.69075933
Cu      11.26245450      15.82683779      16.36983409
Cu      12.20543657      12.09051077      18.95338482
Cu      15.06617115      13.83828655      18.21931837
Cu      14.20326611      18.30931645      18.09005856
Cu      16.84668322      12.48988306      16.98704767
Cu      16.34563389      15.01025754      16.20070337
Cu      12.55822942      13.76080683      17.22535763
Cu      16.42198038      16.89461436      10.91910131
Cu      14.59696281      16.06527662      14.65572036
Cu      19.02704012      14.46656800      13.26182516
Cu      12.06272707      16.82714347      18.53305641
Cu      12.40293761      14.39634354      12.17247459
Cu      14.04868061      16.82504599      20.08783866
Cu      13.82442562      12.19502954      11.49809026
50
Lattice="30.0 0.0 0.0 0.0 30.0 0.0 0.0 0.0 30.0" Properties=species:S:1:pos:R:3 energy=-153.07211389822803 minima_index=2 pbc="T T T"
Al      14.58215464      13.06907983      15.75669675
Al      18.65696037      17.07354049      12.27617314
Al      14.57580701      13.81752220      13.27577462
Al      14.88376754      18.88475870      11.37833542
Al      13.93940067      15.85337713      17.14153242
Al      12.41678226      18.05371073      11.45568032
Al      14.17311426      16.35255182      12.20271309
Al      18.67892642      16.77166155       9.61162278
Al      15.87288215      17.71604039      16.11700368
Al      13.39384578       9.93506701      19.78924744
Al      17.06534534      12.97200426      14.42303386
Al      16.07674174      16.50129650      18.58456416
Al      18.78339783      14.20466260      16.06985612
Al      15.64193561      14.74015007      20.54130895
Al      12.81581268      17.91941793      15.99417414
Al      18.11579423      16.55633675      14.82953344
Al      11.93695695      16.69854782      13.74815971
Al      12.40648907      12.17591600      13.70545348
Al      14.95180263      14.44136211      10.53354992
Al      10.53267730      14.57347890      18.60829636
Al      17.77384113      14.50243627      10.68224278
Al      12.99746671      14.53381598      19.69980826
Al      14.52573388      12.32779368      20.26602514
Al      16.38753751      15.76476812       8.64590538
Al      17.60652537      14.30014143      18.60505227
Al      16.43818262      12.47213768      11.84487647
Al      14.90076096      11.21689321      13.83431649
Al      12.47895482      11.41965946      16.21506283
Al      16.64034394      15.28103620      13.02965554
Al      14.59258361      11.25016843      17.77994987
Cu      13.88799734      18.49185842      13.75690050
Cu      16.23364455      17.80123176      13.40747918
Cu      18.27404711      16.46475602      17.33497466
Cu      12.58913007      14.49295827      14.80426212
Cu      20.12147925      15.33079335      11.19658030
Cu      14.22584501      16.93752186       9.69026575
Cu      11.27941906      15.86542944      16.36930455
Cu      12.25133075      12.08280792      18.91924361
Cu      15.05834720      13.82924569      18.19916830
Cu      14.19383690      18.30992175      18.12137439
Cu      16.85555402      12.49272179      16.97217891
Cu      16.34037589      15.01866318      16.18193788
Cu      12.54530451      13.75819446      17.19568458
Cu      16.43283831      16.87973981      10.94452652
Cu      14.56491688      16.08712436      14.67467111
Cu      19.03122512      14.47071338      13.28560150
Cu      12.05298201      16.84380028      18.55103984
Cu      12.39251585      14.44322035      12.15970481
Cu      14.03499375      16.80905094      20.10724887
Cu      13.79169135      12.21091370      11.48224775
50
Lattice="30.0 0.0 0.0 0.0 30.0 0.0 0.0 0.0 30.0" Properties=species:S:1:pos:R:3 energy=-153.2800285302858 minima_index=3 pbc="T T T"
Al      14.94397866      13.47726767      15.50465017
Al      18.57678064      17.00686363      12.44662582
Al      14.57813483      13.67645206      12.96791032
Al      14.70806733      18.79042243      11.50954531
Al      14.07815089      16.04859694      17.53600843
Al      12.31519291      17.72780213      11.50945292
Al      14.21632923      16.25379720      12.44462216
Al      18.58608549      16.49804287       9.83566959
Al      15.60297814      17.89139424      16.09030436
Al      13.80994425       9.88608253      19.26630860
Al      17.18770847      12.79799073      14.16423266
Al      16.26656786      16.88072273      18.74299495
Al      18.74803298      14.39743109      16.11632480
Al      15.65047206      14.84907984      20.40276424
Al      12.74191820      18.03129291      16.21396682
Al      18.15767757      16.98771364      15.06903066
Al      11.82687282      16.58130459      13.80459329
Al      12.18152811      12.08358825      13.10553734
Al      14.74277525      14.33523577      10.40824333
Al      10.74005377      14.30283635      18.30142839
Al      17.39155441      14.39693309      11.35430225
Al      13.07663986      14.45768153      19.62328607
Al      14.77996039      12.25418370      19.92876958
Al      16.37830387      15.63539606       8.85486068
Al      17.67718217      14.43484339      18.65706602
Al      16.22568144      12.00552141      11.77812313
Al      14.65050116      11.23849184      13.99675318
Al      12.54372856      11.68775215      15.68258711
Al      16.47800339      15.38924837      13.77005795
Al      14.69317450      11.38568519      17.21899314
Cu      13.76841134      18.37363248      13.91060067
Cu      16.18749353      17.91820014      13.49514287
Cu      18.49627641      16.60863575      17.53081845
Cu      12.49042053      14.14943429      14.50724476
Cu      19.91852153      15.05017878      11.36980090
Cu      14.15950885      16.82043585       9.85676333
Cu      11.64969819      15.75553077      16.27140347
Cu      12.48189936      12.02763238      18.60123589
Cu      15.24628555      13.85501142      18.07772625
Cu      14.16669375      18.51812016      18.28729825
Cu      17.03356983      12.61613897      16.84040048
Cu      16.42459836      15.41287333      16.43640302
Cu      12.95599998      13.80668357      17.01048045
Cu      16.35147538      16.78410170      11.17427673
Cu      14.15953089      15.98469266      14.99787218
Cu      18.96331132      14.67935170      13.59258991
Cu      11.93271724      16.80317530      18.58625839
Cu      12.36614617      14.54457363      11.89126463
Cu      13.98138577      16.84855470      20.11205492
Cu      13.71207682      12.05338814      11.14535119
50
Lattice="30.0 0.0 0.0 0.0 30.0 0.0 0.0 0.0 30.0" Properties=species:S:1:pos:R:3 energy=-153.28628215339103 minima_index=4 pbc="T T T"
Al      14.95075904      13.42825610      15.52420697
Al      18.58233036      16.98324462      12.40071543
Al      14.65401965      13.69517414      12.97327745
Al      14.72817801      18.77982011      11.47581646
Al      14.10857174      16.07253559      17.54966405
Al      12.32507666      17.78554615      11.53114726
Al      14.20856381      16.24646140      12.45260643
Al      18.51675247      16.46019593       9.79567756
Al      15.66700166      17.86548192      16.07931183
Al      13.75310947       9.91862183      19.32455166
Al      17.19651138      12.79847422      14.12449938
Al      16.27406189      16.90956647      18.77157742
Al      18.78676411      14.46287297      16.07416426
Al      15.61751361      14.87096340      20.41579208
Al      12.78046322      18.01242369      16.20300017
Al      18.20261831      17.00394007      15.05064288
Al      11.85373989      16.58226054      13.80248392
Al      12.14700018      12.07086529      13.19184909
Al      14.70803669      14.29382458      10.38912750
Al      10.70322261      14.28455862      18.25583359
Al      17.31864470      14.35113055      11.37983310
Al      13.02668404      14.47980586      19.62501365
Al      14.66530497      12.30853613      20.02838039
Al      16.31403936      15.61213294       8.83750169
Al      17.66462018      14.47451312      18.66102602
Al      16.20733198      11.93814502      11.73620059
Al      14.65118819      11.22845370      13.93968685
Al      12.64012167      11.69351636      15.75266533
Al      16.50553591      15.41101166      13.80360527
Al      14.78142730      11.38733151      17.33039346
Cu      13.82846731      18.36593746      13.91111705
Cu      16.23852823      17.93433698      13.45853797
Cu      18.47727847      16.63755418      17.53127505
Cu      12.54054597      14.15918994      14.51497169
Cu      19.82930362      14.96223370      11.27685906
Cu      14.11957478      16.78622068       9.86640138
Cu      11.60962800      15.76795984      16.24285195
Cu      12.48537061      12.06274665      18.55221900
Cu      15.22281021      13.84613135      18.11479585
Cu      14.20966054      18.55478678      18.26104857
Cu      17.07357193      12.69808670      16.80655448
Cu      16.43577291      15.38051295      16.45257581
Cu      12.95625425      13.88322318      17.01191961
Cu      16.32864197      16.74373584      11.16892916
Cu      14.19460557      15.96327585      15.01465283
Cu      18.98006525      14.67538388      13.54724762
Cu      11.91389300      16.77779922      18.54400851
Cu      12.39456967      14.47338412      11.92912190
Cu      13.95149220      16.87303419      20.08861649
Cu      13.67077248      12.04480198      11.22604428
50
Lattice="30.0 0.0 0.0 0.0 30.0 0.0 0.0 0.0 30.0" Properties=species:S:1:pos:R:3 energy=-153.28778293281283 minima_index=5 pbc="T T T"
Al      14.96268161      13.43053204      15.51649143
Al      18.56229558      16.93664282      12.39784889
Al      14.58671626      13.65932922      12.96607800
Al      14.67118147      18.79812344      11.48769237
Al      14.12970405      16.09287437      17.56742227
Al      12.30495536      17.68138918      11.48940491
Al      14.22985812      16.23699385      12.43610927
Al      18.54634277      16.45277949       9.78634337
Al      15.65518792      17.88046324      16.08808865
Al      13.83169160       9.93443167      19.34456275
Al      17.19852144      12.73394079      14.18047905
Al      16.28660669      16.97804380      18.77058927
Al      18.77519290      14.45434846      16.09526068
Al      15.63920693      14.91150556      20.39523632
Al      12.79775204      18.04034018      16.21572689
Al      18.17610879      16.96975685      15.02712772
Al      11.83987175      16.57320528      13.80518274
Al      12.17889907      12.08004676      13.14707352
Al      14.61321771      14.30994865      10.38804408
Al      10.73703018      14.29216566      18.25424655
Al      17.25307626      14.40093070      11.36140727
Al      13.05564720      14.49476334      19.62622689
Al      14.72302677      12.32352845      20.02207570
Al      16.34810939      15.52290604       8.88396199
Al      17.67331084      14.52010273      18.66063604
Al      16.23214360      11.96508390      11.77682375
Al      14.66288404      11.20455301      13.95124811
Al      12.64013624      11.71437782      15.72925066
Al      16.47601779      15.34495251      13.81041640
Al      14.78661248      11.37518856      17.29497570
Cu      13.78145251      18.35039285      13.89221665
Cu      16.18949710      17.87678537      13.47009340
Cu      18.47127746      16.67756543      17.50939918
Cu      12.51242618      14.15518929      14.52912130
Cu      19.79087707      14.90620700      11.28307857
Cu      14.15045453      16.81438826       9.82573066
Cu      11.64447058      15.79520995      16.26258516
Cu      12.54307972      12.06737931      18.54809485
Cu      15.23365488      13.84566075      18.10473250
Cu      14.19535593      18.58247178      18.28239605
Cu      17.08138951      12.68081728      16.85300571
Cu      16.43190493      15.39667316      16.45692839
Cu      12.98415827      13.89302371      17.00549785
Cu      16.33529466      16.82756863      11.12219891
Cu      14.17762069      15.96680561      15.01811388
Cu      18.93999456      14.62099127      13.55628199
Cu      11.93682100      16.80424153      18.56343347
Cu      12.34118576      14.53045271      11.94636018
Cu      13.96755219      16.90198879      20.10644569
Cu      13.71754568      11.99293893      11.18825438
50
Lattice="30.0 0.0 0.0 0.0 30.0 0.0 0.0 0.0 30.0" Properties=species:S:1:pos:R:3 energy=-153.29692515109969 minima_index=6 pbc="T T T"
Al      14.94751090      13.45394054      15.51620548
Al      18.57752966      16.93681788      12.38167844
Al      14.64442737      13.65766043      12.94412378
Al      14.66725261      18.78517285      11.51721807
Al      14.10438638      16.09765096      17.56087668
Al      12.30921643      17.63225989      11.48699658
Al      14.25677122      16.22987184      12.45131543
Al      18.51265101      16.49510747       9.75394417
Al      15.67573061      17.88475138      16.09696645
Al      13.75104307       9.93288043      19.31262575
Al      17.19894961      12.76157177      14.14962944
Al      16.28308241      16.90726366      18.78212702
Al      18.75694588      14.45267383      16.04827364
Al      15.64409040      14.86117600      20.42644436
Al      12.77959593      18.04341344      16.22901295
Al      18.20914837      16.99424590      15.02478725
Al      11.85244093      16.58381895      13.81639925
Al      12.21480356      12.07792941      13.16410845
Al      14.59719282      14.31334005      10.36010114
Al      10.72575801      14.34689431      18.29909634
Al      17.20954381      14.38095790      11.36233003
Al      13.05692422      14.48934686      19.64025178
Al      14.71428240      12.30302648      20.00276892
Al      16.31950297      15.55623556       8.86341344
Al      17.67905997      14.47985349      18.65776686
Al      16.24159142      11.89948299      11.77845992
Al      14.67214285      11.21482924      13.99055105
Al      12.62208069      11.71471826      15.74816965
Al      16.50824941      15.37275145      13.82500605
Al      14.76635821      11.39858880      17.30204286
Cu      13.81904733      18.34557788      13.93247932
Cu      16.22683406      17.89961293      13.48582508
Cu      18.47440327      16.63806527      17.50467224
Cu      12.54944844      14.17256381      14.51755875
Cu      19.74057957      14.90044128      11.20113749
Cu      14.16186368      16.83136304       9.83106057
Cu      11.62632523      15.79873938      16.26054354
Cu      12.49161859      12.08535661      18.56625842
Cu      15.22574200      13.86617090      18.10810688
Cu      14.20588516      18.56183002      18.29318589
Cu      17.05994582      12.69307727      16.83110537
Cu      16.43065518      15.40126132      16.46632621
Cu      12.95890253      13.89661979      17.01553925
Cu      16.34430648      16.83238705      11.13082466
Cu      14.19981582      15.99056897      15.02441765
Cu      18.96603318      14.62005217      13.50427568
Cu      11.93695290      16.82016363      18.57952465
Cu      12.37482902      14.52049930      11.94503511
Cu      13.97818780      16.87412457      20.12352877
Cu      13.73036083      11.99329281      11.18590325
50
Lattice="30.0 0.0 0.0 0.0 30.0 0.0 0.0 0.0 30.0" Properties=species:S:1:pos:R:3 energy=-153.30052989461058 minima_index=7 pbc="T T T"
Al      14.95342964      13.52062028      15.51009791
Al      18.58021674      16.93439900      12.40572835
Al      14.61946051      13.65424581      12.93473402
Al      14.62533826      18.78354549      11.47294729
Al      14.14845633      16.09052213      17.56702097
Al      12.30709392      17.56876324      11.43577949
Al      14.29680540      16.21796183      12.42126724
Al      18.54864924      16.53554755       9.76834456
Al      15.68729070      17.90611114      16.10481891
Al      13.71686483       9.90036613      19.19772663
Al      17.15671617      12.75494526      14.11845620
Al      16.32663482      16.89511393      18.82388962
Al      18.76620186      14.47249777      16.06021216
Al      15.68272047      14.81420319      20.43436122
Al      12.85644187      18.08771815      16.25189055
Al      18.20128676      17.03335168      15.03862076
Al      11.85621613      16.58205302      13.79308215
Al      12.13439148      12.11614431      13.16772889
Al      14.53578884      14.19544050      10.33943321
Al      10.74798579      14.37670424      18.28164175
Al      17.13986569      14.43888981      11.42025261
Al      13.08758173      14.46543973      19.64758874
Al      14.69397555      12.25310905      19.93865223
Al      16.38368162      15.42525198       8.96609140
Al      17.72280494      14.48696989      18.64794289
Al      16.23314203      11.93338660      11.73026853
Al      14.60384759      11.25053900      14.02556805
Al      12.51615868      11.75552580      15.74765013
Al      16.49080738      15.39233419      13.87155351
Al      14.69972673      11.43723150      17.23034102
Cu      13.78411121      18.34948030      13.88461295
Cu      16.19954217      17.91710651      13.46675942
Cu      18.49745085      16.67757695      17.50784431
Cu      12.55218432      14.18106412      14.53458628
Cu      19.68300507      14.86698277      11.21260295
Cu      14.20170134      16.72848332       9.81796149
Cu      11.71122745      15.83543079      16.26452585
Cu      12.42938137      12.07608841      18.57070560
Cu      15.26672641      13.86722104      18.11219932
Cu      14.26763885      18.54609813      18.34018824
Cu      17.05663346      12.69564905      16.79638063
Cu      16.45546479      15.43327628      16.48803810
Cu      12.98569461      13.88694120      17.04355071
Cu      16.37497004      16.92138995      11.10316861
Cu      14.18592103      16.03502968      15.01315352
Cu      18.93808375      14.61637265      13.52572530
Cu      11.99355773      16.81987024      18.60175553
Cu      12.35195660      14.55118336      11.94977071
Cu      14.02916347      16.83582975      20.14587393
Cu      13.71600376      11.87999326      11.26690559
50
Lattice="30.0 0.0 0.0 0.0 30.0 0.0 0.0 0.0 30.0" Properties=species:S:1:pos:R:3 energy=-153.30162475324778 minima_index=8 pbc="T T T"
Al      14.97138333      13.50541832      15.50981177
Al      18.58074590      16.86571547      12.40156896
Al      14.63663199      13.67096317      12.93885645
Al      14.62321225      18.75847768      11.46206346
Al      14.13577863      16.10730989      17.59465765
Al      12.31113255      17.54135936      11.43502678
Al      14.31614551      16.22461129      12.45199276
Al      18.54628892      16.54749068       9.75637795
Al      15.70894524      17.90153965      16.10904892
Al      13.65700303       9.92284594      19.17172484
Al      17.15803244      12.71427906      14.14698642
Al      16.31589729      16.90594242      18.83591431
Al      18.73125857      14.46477207      16.02700489
Al      15.66919277      14.82497701      20.42986124
Al      12.88368349      18.12978646      16.24566543
Al      18.22079373      17.02262382      15.04899938
Al      11.88299498      16.61119318      13.81089896
Al      12.09229664      12.14538927      13.16342537
Al      14.56175165      14.16859766      10.33740873
Al      10.75942154      14.42744972      18.25091116
Al      17.11097934      14.42525676      11.43071413
Al      13.07441782      14.50625507      19.63227964
Al      14.65612367      12.26714960      19.96480217
Al      16.40267142      15.40314587       8.95045995
Al      17.70358941      14.45782686      18.66020291
Al      16.23851391      11.92404626      11.75000397
Al      14.56593130      11.25068294      13.99775368
Al      12.52635969      11.74944753      15.74029754
Al      16.51076496      15.38546647      13.89767685
Al      14.70892098      11.42913902      17.22531788
Cu      13.84580053      18.36079115      13.90200365
Cu      16.25435833      17.91754220      13.45256146
Cu      18.48153398      16.64492584      17.52576504
Cu      12.55726443      14.19839684      14.51846406
Cu      19.63425979      14.79759616      11.14297020
Cu      14.18473019      16.68692906       9.83343733
Cu      11.73503058      15.88283916      16.27266485
Cu      12.43802416      12.12254973      18.54414952
Cu      15.24146855      13.85342363      18.11433094
Cu      14.26350758      18.56818867      18.34981950
Cu      17.06095270      12.67664737      16.82864489
Cu      16.43231148      15.43182873      16.51625954
Cu      12.99349116      13.90861557      17.00010212
Cu      16.37296346      16.89776270      11.09019833
Cu      14.20067415      16.02867206      15.04033281
Cu      18.93511489      14.53929394      13.48483811
Cu      11.99191223      16.90429305      18.60173697
Cu      12.38209591      14.56951253      11.93613594
Cu      14.01899475      16.86878906      20.17043281
Cu      13.71464821      11.88224405      11.29743777
50
Lattice="30.0 0.0 0.0 0.0 30.0 0.0 0.0 0.0 30.0" Properties=species:S:1:pos:R:3 energy=-153.30762857365394 minima_index=9 pbc="T T T"
Al      14.95779943      13.51502072      15.51659534
Al      18.59290518      16.86164024      12.41504231
Al      14.64276058      13.67424150      12.94457948
Al      14.61436952      18.77617123      11.46670367
Al      14.12304233      16.09861914      17.57654449
Al      12.31432573      17.50437725      11.41931350
Al      14.34638277      16.23742439      12.44338899
Al      18.55564301      16.53237291       9.76142204
Al      15.67883016      17.91425489      16.11368242
Al      13.70439326       9.90500672      19.16934312
Al      17.17369842      12.71915583      14.16253021
Al      16.32492974      16.89779450      18.79152240
Al      18.74227455      14.46737303      16.01007743
Al      15.66329197      14.82047702      20.41384004
Al      12.84511225      18.10567892      16.24577282
Al      18.20725570      17.05262810      15.05470479
Al      11.87915024      16.64041834      13.81643529
Al      12.13012277      12.16327381      13.16877525
Al      14.53774972      14.17569311      10.33043759
Al      10.72736490      14.41247495      18.28197530
Al      17.07820708      14.44972364      11.43316698
Al      13.05267951      14.47837600      19.64343817
Al      14.64517579      12.26492307      19.95732432
Al      16.37921715      15.44593172       8.96028897
Al      17.70216235      14.46804621      18.65742963
Al      16.25947863      11.90636175      11.78105044
Al      14.60729354      11.24948766      14.00314224
Al      12.54768790      11.75960052      15.73180374
Al      16.53408738      15.37723621      13.91965070
Al      14.72567090      11.42482545      17.22602278
Cu      13.81021674      18.38712840      13.89683331
Cu      16.21932918      17.90125832      13.47749148
Cu      18.53733795      16.62253175      17.51590406
Cu      12.56749124      14.22328672      14.52294731
Cu      19.61065204      14.76580769      11.12983185
Cu      14.21132352      16.70095884       9.83135075
Cu      11.68869368      15.85930859      16.27195452
Cu      12.42916107      12.08588772      18.53473021
Cu      15.23409486      13.85949031      18.11135440
Cu      14.23989664      18.54809160      18.34366662
Cu      17.06027776      12.69513154      16.82601571
Cu      16.44580968      15.43690300      16.51698318
Cu      12.96539675      13.90952892      17.02135999
Cu      16.39857373      16.95859769      11.09310305
Cu      14.20551548      16.04920983      15.02459082
Cu      18.95647991      14.53173994      13.47287534
Cu      11.97597450      16.84548350      18.60733033
Cu      12.38363881      14.61139517      11.95020232
Cu      14.02846110      16.83332266      20.14085182
Cu      13.73861287      11.87632899      11.29461844
50
Lattice="30.0 0.0 0.0 0.0 30.0 0.0 0.0 0.0 30.0" Properties=species:S:1:pos:R:3 energy=-153.3080518550573 minima_index=10 pbc="T T T"
Al      14.94716157      13.53806231      15.50574454
Al      18.56659684      16.82188625      12.43008986
Al      14.60126443      13.65903142      12.93206083
Al      14.58402003      18.78749328      11.48114071
Al      14.13161667      16.09712972      17.53905645
Al      12.29030457      17.48359319      11.44175309
Al      14.34065708      16.22288920      12.41401336
Al      18.55676902      16.54342950       9.76981026
Al      15.69371100      17.92429968      16.10959738
Al      13.76931377       9.90538687      19.18820355
Al      17.14728984      12.68817615      14.14274303
Al      16.33079497      16.88966441      18.78902213
Al      18.78642712      14.47704267      16.04996770
Al      15.69177796      14.83171725      20.43071909
Al      12.82623107      18.08439387      16.23450711
Al      18.19494441      17.01614996      15.06941687
Al      11.86677890      16.63521811      13.85413664
Al      12.14076976      12.18190223      13.14453246
Al      14.48156328      14.23169866      10.33637678
Al      10.74644418      14.36121391      18.31512033
Al      17.04888218      14.46272121      11.40609692
Al      13.09334204      14.48103902      19.64693193
Al      14.69579063      12.27346398      19.94115435
Al      16.36259307      15.47333085       8.96210593
Al      17.72708979      14.46296415      18.66173210
Al      16.26043480      11.93675755      11.74573851
Al      14.59514807      11.25348073      14.03458842
Al      12.51496500      11.77316034      15.72774626
Al      16.52897636      15.33844749      13.89143525
Al      14.71024119      11.45987301      17.21346118
Cu      13.81386828      18.36732008      13.89172143
Cu      16.21314289      17.86422428      13.47548765
Cu      18.54788730      16.63657864      17.54860895
Cu      12.55497388      14.22698229      14.54948704
Cu      19.58976940      14.74530916      11.14262057
Cu      14.19859051      16.76922952       9.80329315
Cu      11.67586265      15.83046904      16.30215711
Cu      12.44176145      12.06154945      18.56753976
Cu      15.26782583      13.88659178      18.10996438
Cu      14.25574073      18.55537921      18.31567096
Cu      17.06253499      12.72389435      16.79645244
Cu      16.47144526      15.43990783      16.49687740
Cu      12.98068108      13.88483703      17.05055390
Cu      16.38958227      16.98897213      11.07614436
Cu      14.22685505      16.05511571      14.98977192
Cu      18.95327892      14.48943190      13.49887200
Cu      11.99195239      16.83330310      18.60977525
Cu      12.32926299      14.63758339      11.97851724
Cu      14.04551977      16.84825314      20.12314066
Cu      13.75756479      11.85945101      11.26434081
50
Lattice="30.0 0.0 0.0 0.0 30.0 0.0 0.0 0.0 30.0" Properties=species:S:1:pos:R:3 energy=-153.33096311943527 minima_index=11 pbc="T T T"
Al      14.96222635      13.49432818      15.49161096
Al      18.58052072      16.74220747      12.45127243
Al      14.63817823      13.67721726      12.90083333
Al      14.54282016      18.81251618      11.56892484
Al      14.11280565      16.10477411      17.60552893
Al      12.30111613      17.43293587      11.40128750
Al      14.39690332      16.25879500      12.45074768
Al      18.57434243      16.59715642       9.77650234
Al      15.69615915      17.92129443      16.16331908
Al      13.69036552       9.90239144      19.21072906
Al      17.16268904      12.62525841      14.20085792
Al      16.31150997      16.90086268      18.84385202
Al      18.69354607      14.47118256      15.96809797
Al      15.64465446      14.80466008      20.42496362
Al      12.82364307      18.08896893      16.30922177
Al      18.19015361      17.06027764      15.09926575
Al      11.92884578      16.70297417      13.85455721
Al      12.21797967      12.21512429      13.03883076
Al      14.43524880      14.29631755      10.29754122
Al      10.72589041      14.32094424      18.25002837
Al      16.95327444      14.54925273      11.42180327
Al      13.04749185      14.44866290      19.63371805
Al      14.67168085      12.24164214      19.94688471
Al      16.39040464      15.50045121       8.97386643
Al      17.68040511      14.45611202      18.67747538
Al      16.37467737      11.96791011      11.75668851
Al      14.64516690      11.23532102      13.92985947