50
Lattice="30.0 0.0 0.0 0.0 30.0 0.0 0.0 0.0 30.0" Properties=species:S:1:pos:R:3 energy=-154.45776585209745 minima_index=1 pbc="T T T"
Al      14.71063797      13.53858769      15.51717198
Al      18.34508382      16.70947758      12.13458799
Al      14.61373779      14.03563537      12.91963539
Al      14.91033746      18.74065284      11.81562161
Al      13.25277439      15.30318511      17.01306159
Al      12.62408974      18.95895969      13.13738570
Al      13.92746040      16.73430103      13.30964293
Al      17.36062988      15.93951113       9.68309098
Al      16.82017897      17.92524322      16.35194206
Al      13.76367082      10.64784025      19.11206246
Al      17.00485677      12.60935332      13.98181197
Al      16.44961055      16.59018615      18.68409565
Al      19.09619592      14.19649271      15.90574115
Al      16.09334690      14.58579393      20.44626699
Al      12.45519725      17.60991648      15.60574008
Al      18.74500152      16.68517949      14.86203829
Al      11.19447524      16.74123267      13.38563047
Al      12.13989844      12.66181483      13.72777951
Al      14.48558843      14.65098167      10.30906197
Al      11.61836369      14.48603313      18.74519563
Al      17.11673476      14.00665557      11.47597140
Al      13.74320590      13.40933502      20.08539338
Al      16.04557522      12.13543021      19.08039203
Al      15.08703490      17.23471247       9.48626986
Al      17.98561101      14.18664113      18.58929391
Al      15.65086575      11.88518252      11.53421936
Al      14.51012602      11.35711152      13.87250766
Al      12.67640479      11.09733333      15.82616911
Al      16.73054773      15.22341473      13.94333500
Al      15.17060268      11.02251619      16.66768691
Cu      14.63714391      18.81091927      14.95742350
Cu      16.49528905      17.78604082      13.71051829
Cu      18.84696427      16.42054253      17.46871144
Cu      12.63328340      14.98542498      14.59091660
Cu      19.42861492      14.84138720      10.85117110
Cu      13.03035355      17.00198107      10.98890760
Cu      10.79177837      15.76239256      16.25823189
Cu      13.41990466      12.73750311      17.66746682
Cu      15.33632291      14.29366079      18.00574240
Cu      14.36945120      17.68121937      17.48338423
Cu      17.01448980      12.78111579      16.61301948
Cu      16.91276820      15.28232836      16.44575921
Cu      11.51846936      13.38362444      16.20923636
Cu      15.80949900      16.29462796      11.71804315
Cu      14.96096566      16.31370210      15.49261078
Cu      19.07640325      14.37636614      13.30588983
Cu      11.93133770      17.07668107      18.21153064
Cu      12.32354681      14.82165640      12.02078368
Cu      13.94152586      15.94005307      19.42227943
Cu      13.19404340      12.50006197      11.36957056
50
Lattice="30.0 0.0 0.0 0.0 30.0 0.0 0.0 0.0 30.0" Properties=species:S:1:pos:R:3 energy=-154.46711100559645 minima_index=2 pbc="T T T"
Al      14.77512415      13.58190399      15.63502529
Al      18.51679277      16.62704583      12.20870475
Al      14.82024949      13.86770263      13.01889214
Al      14.95630492      18.48381513      11.62005055
Al      13.19981802      15.45017930      16.85134743
Al      12.51677669      18.69173534      12.67826774
Al      13.91930015      16.53293933      13.02645230
Al      17.53344990      15.64477057       9.77375368
Al      16.71070419      18.05632633      16.20469395
Al      13.50372650      10.88131693      19.20633124
Al      17.16045342      12.53484716      14.34769426
Al      16.23694819      16.93451847      18.65479125
Al      18.96811227      14.31838095      16.07093228
Al      15.75668373      15.05226325      20.54813882
Al      12.40599180      17.58370979      15.22122427
Al      18.77976944      16.77569784      14.94370383
Al      11.19283695      16.41967935      13.10182612
Al      12.27094939      12.47177053      13.75911418
Al      14.72010803      14.33371656      10.38072797
Al      11.45658847      14.74597207      18.53521553
Al      17.38416616      13.77366654      11.68793515
Al      13.46151471      13.80756917      20.11300215
Al      15.75470367      12.46673974      19.35480741
Al      15.16384949      16.82993073       9.50892294
Al      17.75520708      14.55527234      18.84136032
Al      16.01852958      11.60362875      11.93636411
Al      14.64401451      11.26434086      14.16985656
Al      12.69066871      11.12219071      16.04078080
Al      16.91609127      15.11811566      14.06382448
Al      15.16056467      11.13833374      16.96488230
Cu      14.56223758      18.77242234      14.52396439
Cu      16.55141863      17.67133784      13.62023880
Cu      18.67741664      16.65081540      17.55554333
Cu      12.71650842      14.84832904      14.46415438
Cu      19.63666371      14.75196760      10.99385723
Cu      12.92211491      16.70251680      10.75233886
Cu      10.74917145      15.77078313      15.93700089
Cu      13.34711837      12.94983233      17.72955817
Cu      15.18127491      14.57066806      18.11705031
Cu      14.25404762      17.82217988      17.15828196
Cu      16.95027569      12.95782659      16.96835837
Cu      16.77862527      15.45852831      16.55144603
Cu      11.50966168      13.42049648      16.14550425
Cu      16.02327461      16.04138008      11.77387140
Cu      14.93801873      16.32878829      15.24998556
Cu      19.31063451      14.39205204      13.47533065
Cu      11.76800057      17.28681045      17.81769639
Cu      12.52259788      14.47283741      11.90884379
Cu      13.68287239      16.29875280      19.25924716
Cu      13.56806811      12.16359552      11.52910427
50
Lattice="30.0 0.0 0.0 0.0 30.0 0.0 0.0 0.0 30.0" Properties=species:S:1:pos:R:3 energy=-154.46934580347664 minima_index=3 pbc="T T T"
Al      14.73420151      13.55799391      15.64420549
Al      18.53683530      16.54696630      12.25786147
Al      14.80990278      13.83260077      13.02521562
Al      14.93221633      18.44096634      11.56606529
Al      13.18094219      15.40936277      16.83222241
Al      12.46999130      18.61832418      12.57598802
Al      13.88595529      16.47491005      12.96188641
Al      17.64759603      15.60989068       9.81647978
Al      16.56113514      18.18381241      16.14950906
Al      13.82144833      10.84500106      19.29877609
Al      17.12911037      12.50653067      14.34797745
Al      16.10927762      17.09174890      18.64443876
Al      18.97882599      14.54440451      16.18627725
Al      15.74853102      15.20204750      20.55718679
Al      12.30806179      17.50108551      15.15157301
Al      18.68444467      16.88720941      14.95577184
Al      11.15953711      16.36137806      13.01158083
Al      12.32653392      12.38989269      13.81488978
Al      14.71177218      14.31826415      10.39189527
Al      11.51844328      14.65463061      18.58176798
Al      17.37138742      13.74855464      11.72243676
Al      13.54105179      13.82166585      20.17381899
Al      15.90494238      12.59894703      19.37534604
Al      15.29546980      16.79740128       9.46857247
Al      17.74739730      14.77186583      18.84661557
Al      15.98970005      11.59203268      11.88730505
Al      14.69380438      11.20739020      14.17225357
Al      12.84681368      11.05105933      16.12197302
Al      16.88263510      15.09964776      14.11119294
Al      15.33898365      11.18496401      16.97862562
Cu      14.45056802      18.73219039      14.42908593
Cu      16.50090601      17.65928885      13.58611250
Cu      18.55991179      16.92825603      17.56364634
Cu      12.67604357      14.80808001      14.42922978
Cu      19.67376160      14.63294927      11.09632736
Cu      13.00600012      16.61119339      10.63708590
Cu      10.72628557      15.61876693      15.91858503
Cu      13.45707933      12.89424859      17.82466289
Cu      15.17786504      14.64724353      18.12747216
Cu      14.13441375      17.82574272      17.08516383
Cu      16.96741840      13.13913226      16.94443566
Cu      16.71869891      15.63265171      16.56809686
Cu      11.62829275      13.31884040      16.20331058
Cu      16.04090131      16.00983109      11.76834179
Cu      14.86811859      16.32518923      15.19379868
Cu      19.24954246      14.31898049      13.57970947
Cu      11.66566607      17.18983694      17.75652199
Cu      12.49456923      14.41289218      11.88356354
Cu      13.60832385      16.31666805      19.23662754
Cu      13.52868591      12.12746884      11.53851355
50
Lattice="30.0 0.0 0.0 0.0 30.0 0.0 0.0 0.0 30.0" Properties=species:S:1:pos:R:3 energy=-154.57393110799697 minima_index=4 pbc="T T T"
Al      14.25440059      13.23372822      15.63522840
Al      18.87336455      16.43884176      12.21495481
Al      14.86068643      14.36494217      13.28979276
Al      15.44417799      19.02567901      12.06439571
Al      13.34070310      15.35528190      16.86949950
Al      12.82103696      19.14282076      12.72904849
Al      13.98005905      16.88951460      12.79686893
Al      17.31887916      15.79426984       9.85404986
Al      16.90160730      17.56739915      16.18131177
Al      13.79206328      11.62797770      19.79233253
Al      16.85086614      12.74770063      14.28287745
Al      16.13876496      16.28749773      18.58615870
Al      18.69534156      13.85703546      15.95092492
Al      15.48862205      14.36474379      20.48420404
Al      12.64504064      17.83925883      15.17873144
Al      19.36912258      16.49933270      14.90152323
Al      11.26314016      16.92812453      13.05475270
Al      12.51213471      12.74262910      13.47655228
Al      14.69530515      14.95531355      10.51360734
Al      11.19971224      14.97814238      18.24733063
Al      16.96493949      13.83426384      11.69183660
Al      12.82527000      13.99492363      20.11676466
Al      16.29192871      11.84499608      19.40489885
Al      15.07307425      17.48894227      10.01229457
Al      17.58270214      13.99578169      18.69099244
Al      16.69943880      11.11209560      12.11097188
Al      14.66818662      11.14345598      14.07723256
Al      12.41902852      11.19783465      15.64662093
Al      17.18853119      15.43846224      14.23064612
Al      14.51403677      11.01951346      17.28321864
Cu      15.00775015      18.74856796      14.60041894
Cu      17.28842211      18.02569779      13.68986807
Cu      18.50456365      15.98340921      17.31891016
Cu      12.66541537      15.22577545      14.37351172
Cu      19.26508784      14.38851461      10.81407702
Cu      12.59749106      17.16702644      10.73906858
Cu      10.84468824      16.09827231      15.85680579
Cu      12.54753832      12.75313676      17.79149720
Cu      14.82158503      13.68073696      18.21733344
Cu      14.45828482      17.72621139      17.13708387
Cu      16.62726583      12.35784047      16.82858764
Cu      16.24843917      14.81821762      16.50405521
Cu      11.42142535      13.63823097      15.80398492
Cu      16.30837347      16.43382845      12.05309339
Cu      14.91215661      16.31361098      15.06663736
Cu      19.13490894      14.02638573      13.31506634
Cu      12.00193268      17.40533827      17.72773791
Cu      12.52649624      14.83561869      11.87977362
Cu      13.68260035      16.17694689      19.23662221
Cu      14.46340967      12.48612982      11.67624388
50
Lattice="30.0 0.0 0.0 0.0 30.0 0.0 0.0 0.0 30.0" Properties=species:S:1:pos:R:3 energy=-154.58677385399847 minima_index=5 pbc="T T T"
Al      14.20441825      13.25275450      15.60116537
Al      19.02148191      16.47606004      12.38734245
Al      14.95422511      14.30474993      13.26458039
Al      15.60124740      19.07616616      12.24255621
Al      13.14266856      15.29250887      16.86137663
Al      12.94016998      19.11484471      12.73091180
Al      14.09029801      16.86647265      12.81326083
Al      17.56773017      15.97719287       9.99280946
Al      16.92516291      17.44323831      16.30102551
Al      13.58120601      11.91252087      19.88955388
Al      16.94896728      12.68799374      14.26770291
Al      16.19632354      16.21306772      18.73234012
Al      18.64411558      13.76967296      16.06420139
Al      15.20178298      14.22201181      20.50386305
Al      12.68794402      17.79356648      15.17512630
Al      19.42608013      16.41773362      15.06798367
Al      11.37301459      16.91305208      12.94286123
Al      12.48220375      12.74764733      13.34198147
Al      14.92912128      15.07280990      10.48450365
Al      10.78636301      14.92575133      17.91180921
Al      17.12062524      13.90242186      11.71623834
Al      12.43570456      14.23098832      19.84644482
Al      16.08575416      11.74092666      19.36762265
Al      15.27879084      17.63194934      10.13310441
Al      17.45347376      13.86004018      18.75227000
Al      16.64387090      11.21494945      11.95631369
Al      14.67403791      11.26389364      13.92477680
Al      12.41242077      11.22757870      15.51974849
Al      17.22199749      15.40842743      14.33745162
Al      14.31328086      11.05313644      17.38447820
Cu      15.09980372      18.62285661      14.70213357
Cu      17.45941707      18.03130412      13.85754356
Cu      18.53357727      15.87884886      17.47085950
Cu      12.70086636      15.18594062      14.28967917
Cu      19.45440380      14.47717442      10.92958320
Cu      12.78219499      17.17205555      10.69473353
Cu      10.78889159      16.13479724      15.62131920
Cu      12.35691017      12.77260238      17.68116307
Cu      14.67899994      13.68830582      18.18463214
Cu      14.46349725      17.57944276      17.16219787
Cu      16.46803012      12.30961109      16.79772846
Cu      16.22698796      14.79024755      16.60210423
Cu      11.31251001      13.63280136      15.60532886
Cu      16.45273790      16.48795386      12.17634238
Cu      14.88230069      16.18070820      15.12441381
Cu      19.22127645      14.05632342      13.43856116
Cu      11.90586229      17.31472488      17.69010227
Cu      12.71144874      14.82861448      11.77493557
Cu      13.72630408      16.22521158      19.18805960
Cu      14.42949864      12.61634728      11.49317433
50
Lattice="30.0 0.0 0.0 0.0 30.0 0.0 0.0 0.0 30.0" Properties=species:S:1:pos:R:3 energy=-154.6687029294593 minima_index=6 pbc="T T T"
Al      13.96201797      13.26402817      15.63747045
Al      19.02007910      16.28213537      12.29799646
Al      14.88108360      14.34880923      13.38754801
Al      15.65687708      19.04722144      12.19988416
Al      13.28487399      15.42779348      17.15744448
Al      13.15634395      19.31562226      13.03987899
Al      14.26359534      16.95371660      13.14238200
Al      17.56266402      15.87845964       9.87905580
Al      17.10790169      17.35932325      16.27682295
Al      13.54576648      11.94156387      19.88434583
Al      16.84319397      12.58964913      14.11741816
Al      15.89789020      15.79593357      18.34527092
Al      18.69163653      13.41118030      15.88794325
Al      15.52224177      13.86635908      20.35966607
Al      12.84537417      17.95568954      15.38102975
Al      19.48927198      16.06663976      15.01721321
Al      11.53967263      17.18143185      13.14468959
Al      12.25099082      13.01906434      13.41134585
Al      14.80190922      15.28973975      10.47444161
Al      10.88613642      15.12505190      18.11747556
Al      16.88757548      13.90950223      11.64180282
Al      12.94074803      14.53816965      19.75503046
Al      15.96397161      11.31503383      19.14083441
Al      15.62273671      17.74992358       9.92893868
Al      17.45143939      13.36150669      18.46849636
Al      16.21730389      11.24764966      11.76439381
Al      14.39691921      11.39562543      13.85637995
Al      12.09170045      11.37272672      15.50993280
Al      17.20087882      15.40364351      14.21976317
Al      13.96784050      10.91623867      17.30836018
Cu      15.32216905      18.66771178      14.81322183
Cu      17.55559392      17.96249797      13.78042808
Cu      18.39918508      15.48750424      17.33636472
Cu      12.73611586      15.36438944      14.53690718
Cu      19.26855273      14.22090816      10.83777130
Cu      13.23292319      17.52140767      10.94372691
Cu      10.86585045      16.36217086      15.83036732
Cu      12.27578566      12.87933211      17.77847833
Cu      14.76352098      13.38171687      18.04448321
Cu      14.62546771      17.86902328      17.25478977
Cu      16.26385339      11.83030759      16.53472629
Cu      16.30529249      14.29678673      16.28442178
Cu      11.23932023      13.85880933      15.77286666
Cu      16.46088535      16.52137599      12.04920373
Cu      14.99090621      16.17560290      15.43622898
Cu      19.08209093      13.85726008      13.32202024
Cu      11.99238731      17.51783007      17.83662426
Cu      12.71376109      15.13503177      11.95695779
Cu      13.81561939      16.88136352      19.40652924
Cu      14.14008395      12.87953714      11.49062662
50
Lattice="30.0 0.0 0.0 0.0 30.0 0.0 0.0 0.0 30.0" Properties=species:S:1:pos:R:3 energy=-154.6931573363419 minima_index=7 pbc="T T T"
Al      14.01314784      13.20874942      15.87949907
Al      18.64954025      16.07658803      11.93286227
Al      14.93623347      14.25678783      13.60481048
Al      15.31157857      18.77437129      11.64854789
Al      13.32209956      15.51238157      17.21953646
Al      12.97202704      19.13252012      12.83753203
Al      14.25996847      16.90843057      13.25873380
Al      17.29521176      15.28041083       9.62730914
Al      17.00905754      17.87362769      15.95628581
Al      13.88427962      12.43790482      20.24751828
Al      16.80575984      12.44442058      14.31728505
Al      16.12162902      16.21985321      18.03325327
Al      18.75094904      13.46426443      15.85073433
Al      15.58824752      14.76705281      20.33339813
Al      12.73705554      17.94713379      15.33570836
Al      19.74529875      15.83345737      14.42560072
Al      11.53918988      16.90915316      13.11766105
Al      12.29793784      12.88158982      13.70851603
Al      14.63504447      14.73260344      10.17917306
Al      10.89087515      15.20517522      18.20402381
Al      16.72042958      13.58303428      11.67604805
Al      12.87374105      14.84929627      19.91153540
Al      16.32522057      12.02257874      19.55750415
Al      15.51335040      17.20848527       9.50599198
Al      17.65149146      13.98265861      18.42838463
Al      16.23101336      10.92283259      12.09523630
Al      14.38433025      11.23182878      14.16886948
Al      12.24822605      11.30348087      15.97078706
Al      17.21478457      15.46638841      14.15134738
Al      14.25931936      11.17038241      17.81120733
Cu      15.06964579      18.93685553      14.61063498
Cu      17.02133318      17.86604194      13.35242037
Cu      18.34845945      15.84446641      16.63400338
Cu      12.80030642      15.28895475      14.67047721
Cu      19.09992695      13.86135824      10.75718515
Cu      13.34855153      17.09613841      10.90491826
Cu      10.87135051      16.28951187      15.87997784
Cu      12.43169709      13.00549054      18.09142203
Cu      14.92088210      13.73558719      18.20669802
Cu      14.55255274      18.15263039      17.14229662
Cu      16.51651719      12.00774151      16.91261212
Cu      16.30164001      14.33581046      16.20262747
Cu      11.33116080      13.79219365      16.01923966
Cu      16.06674579      16.11828060      11.77082310
Cu      15.05738731      16.32026410      15.52296707
Cu      18.88996874      13.67180232      13.21749465
Cu      12.04296987      17.56617541      17.87942736
Cu      12.90862460      14.89323125      12.09145056
Cu      14.06641103      16.99706624      19.34398683
Cu      14.16683108      12.61295695      11.79443651
50
Lattice="30.0 0.0 0.0 0.0 30.0 0.0 0.0 0.0 30.0" Properties=species:S:1:pos:R:3 energy=-154.77560094516338 minima_index=8 pbc="T T T"
Al      13.91461300      13.27914634      16.08150267
Al      18.89900358      15.63296158      12.01689899
Al      14.90813113      13.98709124      13.68265841
Al      15.67622813      18.20970145      11.45793141
Al      13.39825891      15.91977785      16.93379335
Al      13.11976504      18.73426104      12.14819400
Al      14.29602841      16.54592403      12.96297038
Al      17.52168013      14.56810920       9.82794820
Al      16.90563874      18.55422368      15.89059949
Al      13.70847780      13.36335475      20.51602238
Al      16.71362549      12.22222468      14.77854257
Al      16.01251188      16.72405060      17.78323478
Al      18.61937154      13.63124476      16.19955726
Al      15.48338727      15.61109562      20.25932768
Al      12.75721651      17.95189722      14.78054139
Al      19.86160295      15.34566741      14.47472995
Al      11.57030372      16.62351362      12.75535085
Al      12.24873570      12.67535210      13.93591459
Al      14.79873965      14.13162563      10.43143151
Al      10.82905154      15.69997368      17.92074838
Al      16.82090587      13.00251763      11.95472186
Al      12.80084125      15.71411494      19.66192884
Al      16.18533218      12.85370525      19.95414301
Al      15.72649309      16.47635819       9.43713101
Al      17.50892270      14.62504565      18.47034933
Al      16.18730821      10.45677138      12.72997655
Al      14.26724103      11.07380075      14.66571355
Al      12.12137243      11.47402406      16.45633342
Al      17.34895473      14.83643017      14.01268015
Al      14.10006243      11.67247153      18.36468158
Cu      15.12580906      18.83151899      14.01362707
Cu      17.18170683      17.34060134      13.57716362
Cu      17.97358769      16.25460133      16.08155688
Cu      12.82258946      15.20553003      14.56030456
Cu      19.26716239      13.27467805      11.18322355
Cu      13.44412716      16.52490611      10.60742173
Cu      10.84894732      16.41216547      15.48238083
Cu      12.31560553      13.54523132      18.23992267
Cu      14.79001047      14.25687842      18.31103240
Cu      14.43313916      18.49810639      16.59388193
Cu      16.37772640      12.35134078      17.38780855
Cu      16.12642190      14.50398270      16.23207433
Cu      11.26348608      13.94912585      16.02810411
Cu      16.31935557      15.66919056      11.80892119
Cu      15.34064248      16.53533230      15.20638550
Cu      19.03095113      12.95561158      13.60606204
Cu      11.98904002      17.95379347      17.37358813
Cu      12.85641051      14.44631733      12.07667129
Cu      14.01429876      17.77833898      18.95322937
Cu      14.16917705      12.11631296      12.13108274
50
Lattice="30.0 0.0 0.0 0.0 30.0 0.0 0.0 0.0 30.0" Properties=species:S:1:pos:R:3 energy=-155.2361108220393 minima_index=9 pbc="T T T"
Al      13.79769594      13.32281369      16.09013728
Al      18.25993391      17.03933127      11.29774912
Al      15.00104116      13.95724654      13.76486834
Al      15.85312121      18.23745941      11.50593315
Al      13.32773871      15.88276864      16.98684358
Al      13.25474399      18.68955789      12.10533821
Al      14.42430061      16.55564441      13.02100975
Al      17.56903895      14.33304670       9.78972961
Al      16.90383555      18.41458848      16.02522790
Al      13.66073336      13.10774038      20.47469525
Al      16.83544454      12.09941482      14.68744586
Al      15.92963815      16.57803809      17.90750483
Al      18.57070938      13.49532405      16.20990976
Al      15.50729914      15.30007261      20.34134046
Al      12.78272445      17.96057220      14.74454920
Al      19.57451618      16.34364869      13.91525198
Al      11.72033774      16.59473647      12.65212226
Al      12.29659127      12.71959553      13.88805255
Al      14.97622808      13.98275489      10.33118703
Al      10.87461739      15.74729238      17.97882333
Al      16.92820929      12.83012575      11.98888574
Al      12.84137878      15.52638725      19.75551484
Al      16.09968071      12.54199799      19.82912581
Al      16.21903208      16.50934187       9.50077424
Al      17.44356279      14.38866814      18.47671642
Al      16.08533241      10.28718423      12.77450715
Al      14.32890524      11.12245357      14.79773009
Al      11.98773384      11.49183656      16.35727393
Al      17.47122154      14.74943538      14.07828630
Al      13.96000719      11.53066771      18.23665256
Cu      15.15602050      18.84745489      14.11668401
Cu      17.06415070      17.24881218      13.66715646
Cu      17.94653351      16.11257167      16.19945684
Cu      12.85242196      15.23298400      14.54337816
Cu      18.92610812      14.65991126      11.92200639
Cu      13.86337709      16.43577660      10.58038074
Cu      10.87001076      16.43923092      15.48086115
Cu      12.22191906      13.47415460      18.24845371
Cu      14.72937184      14.12340951      18.31190103
Cu      14.41865807      18.46186798      16.65045643
Cu      16.22281850      12.18262007      17.22422334
Cu      16.10029898      14.39445336      16.22963169
Cu      11.21975107      14.00524160      16.00644562
Cu      16.35230303      15.45620481      11.85963681
Cu      15.28550042      16.47107435      15.32865215
Cu      19.13336498      12.86936202      13.66810393
Cu      11.93546432      18.01036779      17.27604758
Cu      13.09619786      14.44602958      12.04734496
Cu      13.84488607      17.67509294      18.94825053
Cu      14.27548953      12.11363427      12.17774193
50
Lattice="30.0 0.0 0.0 0.0 30.0 0.0 0.0 0.0 30.0" Properties=species:S:1:pos:R:3 energy=-155.25745802668865 minima_index=10 pbc="T T T"
Al      13.91528426      13.19046675      15.94484135
Al      18.36295173      17.11118516      11.37665513
Al      15.11243507      14.08033883      13.71086600
Al      15.90445677      18.34949693      11.59588379
Al      13.25417667      15.75175639      16.91009312
Al      13.26245628      18.76209766      12.15020570
Al      14.44672220      16.61112862      12.96150268
Al      17.82785408      14.62564563       9.93482953
Al      16.81875947      18.39810170      16.11085012
Al      13.44211795      12.95973107      20.31520237
Al      16.65664383      12.19462403      14.85949265
Al      15.83889174      16.56621386      17.91091288
Al      18.55216049      13.48384055      16.35528518
Al      15.17796400      15.37996016      20.29248877
Al      12.75970521      17.90038185      14.74613127
Al      19.54904882      16.64660415      13.99321761
Al      11.75790926      16.59077108      12.58470613
Al      12.39816196      12.66345870      13.72051877
Al      15.15582114      14.14079084      10.36962680
Al      10.69778790      15.50293126      17.72037811
Al      17.07049419      12.95013348      12.00444229
Al      12.52623931      15.34748203      19.61622589
Al      15.98828399      12.69414213      19.99132500
Al      16.20711393      16.62546901       9.61472189
Al      17.37563511      14.48936505      18.59770483
Al      16.45886881      10.41245645      12.84392111
Al      14.29264773      10.94029173      14.59503571
Al      12.06936465      11.36070463      16.15464614
Al      17.60006630      14.79832563      14.22052044
Al      14.01084258      11.45542820      18.09904883
Cu      15.10698811      18.87981320      14.19498722
Cu      17.04160576      17.30525608      13.75354051
Cu      17.98109821      16.15038680      16.34718255
Cu      12.90705392      15.18253472      14.44369281
Cu      19.10080199      14.71861333      12.15252310
Cu      13.78996955      16.54444459      10.55817921
Cu      10.84246421      16.32144422      15.28745283
Cu      12.17208411      13.30810241      18.00699143
Cu      14.63433120      14.06321156      18.26686917
Cu      14.30342972      18.38583221      16.72064582
Cu      16.35391796      12.26014242      17.44417541
Cu      16.10605661      14.43766876      16.29592834
Cu      11.26052854      13.86650026      15.76475858
Cu      16.50843175      15.55353120      11.98195884
Cu      15.22787365      16.46206138      15.31672466
Cu      18.98010638      12.68572865      13.79074563
Cu      11.81789237      17.80454432      17.26097646
Cu      13.17745625      14.46173733      11.96253879
Cu      13.69641246      17.47198091      18.98331123
Cu      14.50063179      12.15314211      12.16553735
