50
Lattice="30.0 0.0 0.0 0.0 30.0 0.0 0.0 0.0 30.0" Properties=species:S:1:pos:R:3 energy=-153.27991054683685 minima_index=1 pbc="T T T"
Al      15.74889679      12.85729396      14.81110156
Al      19.75507129      16.39329299      12.06843081
Al      15.59204555      13.28709188      12.26699983
Al      15.93954730      18.42195650      11.02197614
Al      14.95176184      15.46546927      16.92412099
Al      13.54052978      17.36753660      10.83938121
Al      15.40923550      15.89245481      11.85054605
Al      19.85978430      15.96507323       9.43223812
Al      16.68192220      17.22986043      15.61078642
Al      14.02212648       9.32235124      18.46608426
Al      18.05674605      12.21860754      13.54038892
Al      17.12417696      16.10576774      18.26314915
Al      19.57216825      13.60101400      15.61365689
Al      16.28388287      14.04747307      19.80593864
Al      13.81837085      17.57655451      15.61941762
Al      19.20353371      16.29998252      14.69204441
Al      12.94854209      16.29372572      13.12859175
Al      13.05084167      11.85384835      12.19332609
Al      15.86394949      14.00774244       9.73495811
Al      11.44093780      13.95680807      17.43230078
Al      18.42703585      13.93863847      10.85429843
Al      13.70140840      13.87805347      18.88293786
Al      15.13036567      11.59808078      19.24389361
Al      17.66255436      15.26491166       8.34009299
Al      18.37677935      13.59251339      18.12594250
Al      17.20654539      11.55719044      11.06266412
Al      15.40840039      10.77755595      13.05068794
Al      13.33654788      11.28845583      14.77469976
Al      17.51692633      14.86920147      13.27006070
Al      15.25562216      10.80224312      16.56231771
Cu      15.00387329      17.92360258      13.40893452
Cu      17.41270494      17.43244239      13.02112296
Cu      19.38852854      15.73246212      17.13721985
Cu      13.43550852      13.80133572      13.73607703
Cu      21.00429193      14.37374291      10.96223627
Cu      15.45938514      16.52825177       9.25516244
Cu      12.57804571      15.38290051      15.53079712
Cu      12.94537405      11.55151064      17.69597432
Cu      15.93407619      13.17023325      17.43583222
Cu      15.16606905      17.89702076      17.76800064
Cu      17.71591679      11.90309831      16.19745123
Cu      17.29185081      14.68498687      15.90013964
Cu      13.71610475      13.33415713      16.24184774
Cu      17.59933932      16.41440493      10.65576561
Cu      15.17507020      15.46653981      14.39509988
Cu      19.96506287      14.02764840      13.13940336
Cu      12.80812605      16.33375800      17.89268821
Cu      13.47340374      14.34634011      11.15028424
Cu      14.77129521      16.16174914      19.51316131
Cu      14.73564262      11.73999318      10.36329102
50
Lattice="30.0 0.0 0.0 0.0 30.0 0.0 0.0 0.0 30.0" Properties=species:S:1:pos:R:3 energy=-153.8863212931015 minima_index=2 pbc="T T T"
Al      15.70578109      12.93300949      14.58560227
Al      19.30132701      16.25796816      11.79460725
Al      15.76425236      13.16909088      11.86886336
Al      15.93506080      17.59198205      10.71694242
Al      14.99871343      15.48641165      17.18769786
Al      13.37675763      16.96171115      10.69425189
Al      14.97592136      15.60173927      12.21590428
Al      19.06765764      15.14251888       9.20411959
Al      16.68014205      17.29238151      15.82264403
Al      14.17531918       9.28162581      18.13019392
Al      18.06890711      11.95558588      13.39224905
Al      17.06926511      16.29183211      18.54565314
Al      19.53277367      13.85122109      15.57114416
Al      16.17854428      14.02501216      19.68250171
Al      13.92208675      17.64333852      15.72503769
Al      19.13769512      16.35506781      14.47527164
Al      12.62064235      16.34885290      13.13315028
Al      13.55538771      11.71521995      12.04369160
Al      16.86535997      13.43932054       9.04743209
Al      11.44268729      13.84115089      17.22554207
Al      18.62468927      13.07455930      11.02454950
Al      13.61125409      13.80017691      18.82907844
Al      15.14425124      11.50855343      19.15233602
Al      16.82084639      16.28001448       8.54971587
Al      18.28713811      13.77001234      18.04532089
Al      16.64507749      11.09246335      10.70745682
Al      15.66142439      10.62314524      13.29124243
Al      13.34218066      11.39355011      14.69624640
Al      17.48063852      14.57211913      13.42519454
Al      15.43575949      10.71685839      16.22017003
Cu      14.70366215      17.92591907      13.26284039
Cu      17.02397215      17.06778287      13.09898146
Cu      19.05639220      16.07008980      16.99231042
Cu      13.43689466      13.85833652      13.60479686
Cu      20.85047467      14.46241852      10.83194125
Cu      14.90782804      15.04525677       9.67907611
Cu      12.55056932      15.52451224      15.50709776
Cu      13.18783751      11.57435506      17.41675068
Cu      15.84625095      13.03437599      17.30635146
Cu      15.04127264      17.91608539      18.00619037
Cu      17.73517556      12.07813635      15.99549848
Cu      17.15553564      14.74903843      15.96482892
Cu      13.76836574      13.53104143      16.08688653
Cu      17.15371866      15.28548326      10.93033712
Cu      15.08051717      15.55001353      14.65716128
Cu      19.98025445      14.04162207      13.07696517
Cu      12.74002581      16.26688987      17.90911483
Cu      13.08272978      14.19284946      11.14785918
Cu      14.59377091      16.11814060      19.69446194
Cu      14.51636987      12.50283350       9.73566764
50
Lattice="30.0 0.0 0.0 0.0 30.0 0.0 0.0 0.0 30.0" Properties=species:S:1:pos:R:3 energy=-153.90341009296364 minima_index=3 pbc="T T T"
Al      15.48790718      12.76963040      14.53258679
Al      19.11133276      15.88293812      11.63253526
Al      15.47406869      12.96876032      11.81623242
Al      15.75077086      17.38250031      10.58841262
Al      14.91768147      15.41093629      17.04923377
Al      13.17514955      16.80117538      10.53195062
Al      14.74188859      15.42002163      12.08095090
Al      18.77800888      14.77764172       9.05030671
Al      16.74034474      17.09284246      15.70404475
Al      13.82957962       9.23700516      18.09454622
Al      17.82014411      11.68512835      13.35912920
Al      17.06582224      16.05351922      18.39632178
Al      19.36322456      13.51018918      15.44049030
Al      16.05597629      13.86880895      19.60781366
Al      14.06313933      17.65101306      15.59147472
Al      19.01416820      16.02895393      14.31196846
Al      12.38170670      16.18919170      12.94081351
Al      13.23047907      11.57421963      12.02487905
Al      16.52985887      13.16470555       8.94642509
Al      11.33657966      14.13479795      17.21021764
Al      18.28256142      12.77344448      10.94225311
Al      13.49446611      13.82405966      18.76492197
Al      14.95703573      11.41208119      19.09846545
Al      16.57255051      16.03445168       8.43154956
Al      18.12934742      13.49902819      17.94311025
Al      16.26240866      10.87756511      10.62150130
Al      15.36405135      10.45702022      13.23521914
Al      13.10460560      11.31365047      14.68810848
Al      17.29905635      14.30894311      13.28568486
Al      15.17978012      10.56861931      16.19686989
Cu      14.50250012      17.75739541      13.05077407
Cu      16.84061963      16.80903283      12.97664592
Cu      19.04212747      15.74189394      16.83664451
Cu      13.24407414      13.76386573      13.53843076
Cu      20.55571089      14.00643025      10.63400524
Cu      14.62997900      14.83446617       9.56189433
Cu      12.56378638      15.63776512      15.39397636
Cu      12.99386834      11.60441727      17.39356100
Cu      15.62136472      12.92237236      17.22927750
Cu      15.15709223      17.83761190      17.88041964
Cu      17.49064793      11.84820636      15.95315290
Cu      17.04008072      14.52418189      15.84445281
Cu      13.55346582      13.51448208      16.00284875
Cu      16.89708503      15.03270160      10.79310172
Cu      15.01777231      15.43401698      14.51564118
Cu      19.78285803      13.67007823      12.94583098
Cu      12.77337721      16.42350365      17.80705556
Cu      12.78536012      14.04797289      11.08137140
Cu      14.61421847      16.07394194      19.57333581
Cu      14.15972933      12.32616283       9.69938772
50
Lattice="30.0 0.0 0.0 0.0 30.0 0.0 0.0 0.0 30.0" Properties=species:S:1:pos:R:3 energy=-154.7277544668593 minima_index=4 pbc="T T T"
Al      15.15028450      13.32032678      15.06065580
Al      17.71241142      17.91055217      12.77955996
Al      15.26968603      13.65601245      12.28934016
Al      15.27358531      18.37280321      11.80098135
Al      14.81258582      15.78552075      17.84611552
Al      13.01743836      17.26833751      10.88296853
Al      14.37958595      16.06994640      12.71969618
Al      18.32799300      15.72808551       9.44329391
Al      16.45129718      17.67623440      16.87754969
Al      16.57376140      11.54434733      18.82562243
Al      17.45720361      12.47847266      13.89223716
Al      16.55635685      16.56444392      19.55531232
Al      19.17925324      14.24003487      16.46339921
Al      15.35154135      14.15982569      20.19599893
Al      13.83094516      18.09478175      16.30728786
Al      18.48775878      16.73459943      15.14531508
Al      11.60674342      16.23551078      12.87013256
Al      13.13973172      12.00218927      12.37727910
Al      16.46029668      13.73564586       9.55561723
Al      10.85192488      13.94251031      15.30935012
Al      18.08706639      13.64636421      11.58736325
Al      12.84851879      14.17607477      19.09907126
Al      14.15077734      11.82622532      19.64726096
Al      15.87616061      17.41767218       9.30185552
Al      17.55224490      14.06568809      18.68305026
Al      16.25342283      11.53335786      11.27033155
Al      15.18599635      10.98637086      13.76271373
Al      12.80915010      11.88046079      15.02029777
Al      16.82879993      15.27771664      13.79302457
Al      14.98693219      11.00434246      16.58220801
Cu      13.28160866      18.08989362      13.73660878
Cu      15.78242646      17.80103165      14.36824686
Cu      18.48127494      16.35065919      17.77884958
Cu      13.01520564      14.24831426      13.90035399
Cu      19.06892833      15.97719984      12.06737572
Cu      14.53159639      15.30808116      10.09903891
Cu      12.16819831      16.32005699      15.32842154
Cu      12.75425078      12.06309057      17.55251022
Cu      15.10211669      13.30269626      17.68462980
Cu      14.57057021      18.19272553      18.75696970
Cu      17.23850590      12.48861487      16.48590781
Cu      16.76344740      15.01566855      16.36539328
Cu      13.09371911      14.28974897      16.50268837
Cu      16.60239410      15.94327158      11.34023532
Cu      14.61729205      15.85608919      15.26436477
Cu      19.26029723      14.39248266      13.96441612
Cu      12.42629653      16.51245868      17.88148688
Cu      12.66238043      14.40311223      11.41081669
Cu      13.83392035      16.31943054      20.18336058
Cu      14.14358869      12.74129720      10.10795524
50
Lattice="30.0 0.0 0.0 0.0 30.0 0.0 0.0 0.0 30.0" Properties=species:S:1:pos:R:3 energy=-154.95224355399995 minima_index=5 pbc="T T T"
Al      14.98563073      13.33170456      14.66865869
Al      17.66971240      17.85083404      12.11873732
Al      14.94808719      13.72452931      11.93766087
Al      15.16225150      18.24462986      11.13459159
Al      14.86574388      15.73230631      17.53806669
Al      12.60271676      17.48744645      10.76952814
Al      14.13934307      16.19928799      12.45436588
Al      18.52676286      15.73083108       9.78529218
Al      16.39406286      17.62541513      16.37622596
Al      16.44264991      11.37292046      18.20317107
Al      16.95181683      11.96914965      13.37850752
Al      16.53156643      16.58685588      19.26335682
Al      19.27103331      14.07123835      16.55395362
Al      15.21483622      14.21912085      19.88632692
Al      13.86306340      18.28568511      15.86299986
Al      18.32714914      16.67794115      14.73918861
Al      11.28228678      16.32052428      12.69737949
Al      12.62923193      12.32395904      11.83748364
Al      16.32288430      14.14965148       9.22699677
Al      10.65245082      14.32639527      14.91535904
Al      17.78605481      13.55521586      11.40981112
Al      12.80215339      14.21228675      18.69964824
Al      14.14309576      11.87047034      19.27865612
Al      16.43924278      17.13016786       8.99660471
Al      17.37874431      13.95935718      18.39156736
Al      15.87049262      11.70641731      10.66638875
Al      14.52209618      11.03369262      13.09459894
Al      12.50775811      12.05271506      14.60111306
Al      16.52915246      15.24989361      13.52042650
Al      14.89681497      11.00707080      15.94040610
Cu      13.14907721      18.29271923      13.35172655
Cu      15.73182588      17.83235825      13.80227301
Cu      18.34880691      16.29287913      17.43281067
Cu      12.84929312      14.37169118      13.56062494
Cu      18.91033824      15.66893355      12.36716963
Cu      14.33877774      15.77170831       9.79886803
Cu      12.18019189      16.51735707      15.01023958
Cu      12.78538343      12.06523774      17.13836583
Cu      15.03505597      13.26082229      17.26119137
Cu      14.62117666      18.20077379      18.31571497
Cu      17.20045876      12.46289368      15.97748424
Cu      16.78070643      14.90547722      16.02487664
Cu      12.98421327      14.36492402      16.12911381
Cu      16.42476567      15.87632606      11.15771617
Cu      14.57275172      15.94997183      15.01297134
Cu      18.52429798      13.88279412      14.17803074
Cu      12.52990267      16.63947217      17.49668149
Cu      12.43281732      14.74545676      11.01942784
Cu      13.77831241      16.40589556      19.80516160
Cu      13.91200468      13.20451823       9.64299569
50
Lattice="30.0 0.0 0.0 0.0 30.0 0.0 0.0 0.0 30.0" Properties=species:S:1:pos:R:3 energy=-154.96403194553113 minima_index=6 pbc="T T T"
Al      14.95423625      13.27794319      14.59387741
Al      17.76364175      17.64692260      11.88308943
Al      14.94656942      13.61513421      11.90944612
Al      15.23858253      18.14919503      11.03226549
Al      14.90985088      15.65688926      17.49956423
Al      12.67368128      17.46003638      10.68098583
Al      14.17795181      16.12063216      12.35620219
Al      18.62486540      15.61263933       9.87993668
Al      16.34782941      17.58312980      16.20560783
Al      16.36460426      11.32943461      18.21299599
Al      16.88084759      11.80638373      13.38510365
Al      16.37278863      16.34655819      19.48865305
Al      19.20533707      14.26616360      16.47304745
Al      15.09402954      13.93297588      19.79374732
Al      13.83968484      18.24687042      15.83379225
Al      18.42566252      16.46274106      14.84205319
Al      11.32559472      16.32352436      12.59038010
Al      12.57827112      12.31121905      11.69993894
Al      16.41478787      14.02127264       9.17793936
Al      10.66095142      14.27086151      14.90599034
Al      17.81022761      13.41561976      11.43659717
Al      12.72612429      14.10812151      18.56870194
Al      13.94085418      11.64489385      19.04721558
Al      16.60933689      17.01752356       8.99490306
Al      17.32544118      13.88667686      18.34906852
Al      15.90936410      11.62232088      10.61527905
Al      14.44318348      10.96410090      12.96682802
Al      12.43593014      12.00864009      14.41455469
Al      16.57163937      15.19019716      13.48398288
Al      14.85137668      10.95665361      15.85008419
Cu      13.24927594      18.21870806      13.29807275
Cu      15.83173207      17.74619320      13.64656879
Cu      18.08140146      16.29953710      17.56204031
Cu      12.81655860      14.34603185      13.46471637
Cu      18.98986785      15.50264629      12.45300633
Cu      14.41107722      15.71631211       9.68112018
Cu      12.16425211      16.49337438      14.92364377
Cu      12.66210362      12.04212520      16.91423828
Cu      14.95917831      13.17175094      17.18412811
Cu      14.67280425      18.05950853      18.29476112
Cu      17.16740684      12.39091356      15.97564427
Cu      16.71702752      14.81412865      15.96475019
Cu      13.00493380      14.35155493      16.02748355
Cu      16.42389018      15.68373303      11.10150834
Cu      14.57046664      15.93810595      14.92715013
Cu      18.48124372      13.67836083      14.15486715
Cu      12.55625189      16.56087016      17.42176581
Cu      12.46954485      14.73510779      10.90562807
Cu      13.72361288      16.22650804      19.74609584
Cu      13.98051779      13.15875263       9.57934170
50
Lattice="30.0 0.0 0.0 0.0 30.0 0.0 0.0 0.0 30.0" Properties=species:S:1:pos:R:3 energy=-155.05646229100452 minima_index=7 pbc="T T T"
Al      15.08144180      13.45186139      14.50757763
Al      17.63762624      18.04069145      12.69114628
Al      15.09495751      14.09605770      11.89826887
Al      15.24981180      18.39434285      11.10770316
Al      15.12885284      15.78414680      17.60823501
Al      12.64525095      17.68899320      10.70779506
Al      14.09846772      16.48035235      12.49802513
Al      18.71950715      15.68560344       9.72807950
Al      16.42936848      17.66407656      16.01634955
Al      16.36392743      11.28931180      18.08101100
Al      16.93103063      11.85304746      13.31150038
Al      16.41214715      16.79498839      19.62663365
Al      19.19875599      14.26488017      16.43121316
Al      15.30481871      14.35304880      19.91458126
Al      13.75058989      18.50347228      15.76391128
Al      18.68245011      16.49800869      14.99003040
Al      11.24163265      16.44380203      12.56813443
Al      12.89020036      12.49342883      11.77820576
Al      16.39334509      14.30781598       9.26019825
Al      10.69103077      14.41606354      14.82814662
Al      17.77638997      13.65428471      11.44682273
Al      12.91998869      14.32124703      18.63079603
Al      14.20036337      12.02426890      19.28695111
Al      16.54730949      17.25530288       8.78816141
Al      17.36590932      13.81159156      18.31911954
Al      15.70157512      11.84918936      10.79299199
Al      14.49438516      10.95236832      13.13064564
Al      12.56216517      12.19864308      14.56547430
Al      16.50501218      15.81221668      13.60319310
Al      14.88903411      11.06762473      15.81818903
Cu      12.84044189      18.53602388      13.26240773
Cu      15.35209902      18.33199721      13.75459381
Cu      17.95228655      16.28845965      17.62648661
Cu      12.90063184      14.52670581      13.49819347
Cu      18.90826590      15.81332132      12.41142042
Cu      14.46979696      15.99919566       9.87402585
Cu      12.13553417      16.64012427      14.88255914
Cu      12.81705730      12.09077488      17.12718476
Cu      15.04857996      13.30162237      17.15889214
Cu      14.80925203      18.26027032      18.09451602
Cu      17.21315471      12.43227119      15.90521907
Cu      16.74387912      14.87658168      15.93452849
Cu      13.03995028      14.39783765      16.06313212
Cu      16.62402555      16.17283473      11.14488905
Cu      14.50144092      16.10382956      15.09668575
Cu      18.23430827      13.95498491      14.06128845
Cu      12.76499301      16.67021409      17.31612034
Cu      12.51853465      14.93653990      10.98242828
Cu      13.78710998      16.57310615      19.70060520
Cu      13.98878171      13.45224835       9.57896644
50
Lattice="30.0 0.0 0.0 0.0 30.0 0.0 0.0 0.0 30.0" Properties=species:S:1:pos:R:3 energy=-155.1504729968329 minima_index=8 pbc="T T T"
Al      16.01908826      13.04999665      15.03497828
Al      17.43684361      16.72913683      11.10732145
Al      15.77633029      12.58640628      12.41412765
Al      14.94250504      16.08624531      10.04828618
Al      16.06086031      16.23994734      17.03859579
Al      12.41699065      15.12310678      10.52879246
Al      14.29482110      14.84277294      12.26403846
Al      18.55927865      13.28924755       9.09636605
Al      16.75812097      17.54082061      14.63803931
Al      17.99311356      12.33541040      18.73416751
Al      17.66281048      11.11493472      14.21480916
Al      17.43474107      18.04568604      18.30358204
Al      20.08639900      14.81684291      15.62315727
Al      16.78736032      15.80027804      19.63050934
Al      13.99471669      17.89222922      14.65589761
Al      19.05306109      16.32028813      13.65489957
Al      11.44563308      14.44877284      12.98086233
Al      12.32802063      11.16330725      13.73910435
Al      16.31856335      11.68573432       9.80765802
Al      11.60501322      13.22302061      15.43818294
Al      18.34105338      12.12361163      11.60203611
Al      14.29962527      15.02942024      18.90041832
Al      16.05628745      13.32851090      20.11619583
Al      15.98883066      14.15972967       8.13241710
Al      18.64883322      14.93850205      17.91212948
Al      16.67419596      10.02313078      11.92933210
Al      14.97251824      10.56930066      14.03624391
Al      13.63031475      11.53748991      16.11410053
Al      16.82565354      15.07538014      13.03404304
Al      16.32930126      11.19885451      16.86326527
Cu      12.74355918      16.80778684      12.61194507
Cu      15.27855514      17.22449590      12.48877109
Cu      18.73297711      17.05280755      16.30177623
Cu      13.70033537      13.27055026      14.07902702
Cu      19.02333105      14.66822216      11.52854318
Cu      14.38426860      13.35591541      10.06210844
Cu      12.59315214      15.59713364      14.87141110
Cu      14.46104674      12.38997523      18.37764474
Cu      16.32109579      13.78610688      17.50688769
Cu      15.41440900      18.67026307      16.67540031
Cu      18.42737213      12.77787585      16.23693120
Cu      17.56033956      15.02321632      15.47966151
Cu      13.97776287      14.12958824      16.50192311
Cu      16.69203573      14.23825859      10.63168786
Cu      15.02490984      15.54732249      14.74669442
Cu      18.69586242      13.49307337      13.80285605
Cu      13.57331073      16.68907257      16.90947258
Cu      12.75779273      12.69944958      11.76113508
Cu      14.91117982      17.60157714      18.93199739
Cu      14.23816390      10.79387253      11.42099661
50
Lattice="30.0 0.0 0.0 0.0 30.0 0.0 0.0 0.0 30.0" Properties=species:S:1:pos:R:3 energy=-155.32795606213685 minima_index=9 pbc="T T T"
Al      15.95994100      12.92216438      14.74869976
Al      17.10777578      16.54557201      10.87547500
Al      15.87670995      12.23432956      12.20054386
Al      14.55323845      15.56016584       9.93995493
Al      15.81417157      16.23844069      16.73928223
Al      12.24360300      14.10250621      10.43057020
Al      14.16835468      14.30153750      12.19500055
Al      18.62009644      13.43038189       9.00292191
Al      16.48256825      17.38846530      14.39138335
Al      17.58491063      12.03305847      18.50062896
Al      17.61731866      10.94621285      14.06446625
Al      16.82768818      18.63515266      17.29591498
Al      19.93596568      14.76401100      15.50361034
Al      16.99281534      16.57192180      19.00825067
Al      13.35300248      17.46043424      14.14788054
Al      18.85206129      16.26973678      13.57485176
Al      11.33019622      13.49241069      12.86037666
Al      11.92638894      10.95027593      14.02845986
Al      16.64791624      11.48164762       9.54626659
Al      11.47764124      12.98615085      15.66392475
Al      18.46375545      12.03157854      11.44952666
Al      14.34519645      15.07623912      18.67565489
Al      16.50176891      14.03827965      19.72616652
Al      15.89650033      13.82526950       8.00633441
Al      18.52719597      14.67875144      17.82225136
Al      16.91833104       9.79493393      11.79350212
Al      14.70314522      10.47878790      13.77897966
Al      13.56559703      11.28874767      16.21060364
Al      16.66935928      14.91744774      12.87722903
Al      16.19616482      10.98438881      16.51341379
Cu      12.40356752      16.09375757      12.12674557
Cu      14.92819491      16.81070081      12.27341726
Cu      18.46533011      16.91255411      16.31724075
Cu      13.55055811      12.90003808      14.15319619
Cu      18.88233691      14.65556588      11.44051277
Cu      14.41994804      12.79319899       9.95410036
Cu      12.34682742      15.12960840      14.52314413
Cu      14.74318066      12.33312080      18.39774407
Cu      16.22669863      13.74759758      17.14780201
Cu      14.63636695      18.48617251      16.03617185
Cu      18.32660291      12.64996914      16.07558715
Cu      17.42939032      14.94007662      15.30842433
Cu      13.84659999      13.89774636      16.43109731
Cu      16.58716080      14.01573150      10.50071907
Cu      14.79342156      15.33334224      14.58118533
Cu      18.60142937      13.39260694      13.66390823
Cu      13.24628482      16.37120430      16.56139384
Cu      13.09829663      11.87184580      11.90080615
Cu      14.59158484      17.68562077      18.45378930
Cu      14.64564548      10.32813882      10.82272227
50
Lattice="30.0 0.0 0.0 0.0 30.0 0.0 0.0 0.0 30.0" Properties=species:S:1:pos:R:3 energy=-155.33532516708198 minima_index=10 pbc="T T T"
Al      15.04338715      11.47172094      13.72006208
Al      15.38144431      15.72386824      10.07657385
Al      14.76159422      11.21711806      11.09196578
Al      12.78704085      14.69449044       9.48502627
Al      15.03033200      14.49794793      16.06137219
Al      10.70982979      12.99484337      10.13808228
Al      12.91943960      13.10097771      11.54113458
Al      16.77443137      13.14625402       7.68444047
Al      15.31038920      16.01713041      13.87754884
Al      17.40941569      10.25250578      16.97443839
Al      16.63249575       9.68913063      12.50714053
Al      16.11481625      16.78068624      16.92672765
Al      18.99644926      13.42265608      14.02473083
Al      16.54237508      14.43092928      18.16474070
Al      12.29514940      15.94018235      14.11484168
Al      17.61826676      15.17680606      12.61962655
Al      10.19936639      12.09599915      12.58975056
Al      11.03264314       9.48573359      13.27721760
Al      15.07358508      10.91661997       8.21322340
Al      10.82241322      11.20543225      15.28027538
Al      17.16655195      11.35232507       9.81861308
Al      14.01870875      13.00243793      18.08749338
Al      16.30435709      11.82559301      18.67309043
Al      13.91875671      13.40756818       7.19953853
Al      18.08260730      12.94380751      16.51927025
Al      15.89188613       9.00304874      10.06722132
Al      13.76345299       9.21228425      12.51448559
Al      13.03588713       9.60680981      15.17410356
Al      15.41280441      13.87914099      11.99093686
Al      15.69928970       9.37302700      15.17351040
Cu      11.07904180      14.72395818      12.10659680
Cu      13.49411494      15.65784068      11.88767045
Cu      17.58197513      15.34167645      15.41259645
Cu      12.57832662      11.50018767      13.41703674
Cu      17.37246433      13.94164610      10.25592103
Cu      12.85654700      11.91403072       9.14537290
Cu      11.34504719      13.54209605      14.35563958
Cu      14.42017675      10.38293644      17.33043041
Cu      15.72750467      12.02881535      16.14762928
Cu      13.75988797      16.79514913      15.95983075
Cu      17.61246376      11.18345605      14.54052135
Cu      16.48507325      13.48551297      14.27381579
Cu      13.24467022      12.16852679      15.75811546
Cu      14.98898104      13.23780259       9.55103279
Cu      13.76104704      13.83471759      13.94497623
Cu      17.37915187      12.24174520      12.23769843
Cu      12.50561726      14.54543052      16.36752216
Cu      11.88519870      10.69917284      11.13372642
Cu      14.09922305      15.62212322      18.19040445
Cu      13.41682524       9.43604436       9.69892220
