50
Lattice="30.0 0.0 0.0 0.0 30.0 0.0 0.0 0.0 30.0" Properties=species:S:1:pos:R:3 energy=-154.54970116037597 minima_index=1 pbc="T T T"
Al      14.09710767      13.32655050      15.54939404
Al      18.64044266      15.38261095      13.22446966
Al      14.05957266      13.35777370      12.88108475
Al      15.73009249      18.24045421      11.86658963
Al      14.44904293      16.94507451      17.67702142
Al      13.21893680      17.94087234      11.27309129
Al      14.22845836      16.04985097      12.79573998
Al      17.59165182      16.57880118      10.99864181
Al      16.20439903      18.22794224      16.02333784
Al      13.59637955      10.57204281      19.08797326
Al      15.77892396      11.51588139      14.04694953
Al      16.99215246      16.72724523      18.67086635
Al      18.72642916      14.11460059      15.58110634
Al      15.77507169      14.70477920      20.03364140
Al      13.76701397      19.23700798      16.65139650
Al      18.64055036      17.18605576      15.17787246
Al      11.79720951      17.13812597      13.20116615
Al      11.18437823      13.03173195      13.38281613
Al      14.26150233      13.71867273      10.25871470
Al      11.86486718      17.23573156      18.16056183
Al      16.39015492      12.27088645      11.23573311
Al      13.25080551      15.28645841      19.42552573
Al      15.67867692      12.25334750      18.81267875
Al      16.65693097      14.50533639       9.38709117
Al      17.72458643      14.06844258      18.24882669
Al      14.27014827      10.86764702      11.84540467
Al      12.95948185      11.19837849      14.22399117
Al      11.58224802      12.82135740      15.98933486
Al      16.25947772      14.24334898      14.36524502
Al      14.50424354      10.98275003      16.61329882
Cu      14.24659989      18.24993957      14.14465608
Cu      16.51006162      16.78325027      13.79407596
Cu      19.16679427      16.03123626      17.35592460
Cu      12.41150290      14.96818006      14.39167715
Cu      18.49110471      13.96729452      11.05715517
Cu      14.96762762      16.24906015      10.30589125
Cu      12.44897044      17.27154778      15.65599659
Cu      13.23565318      12.92915232      18.07736360
Cu      15.14916912      14.49012481      17.55280353
Cu      15.76315235      19.04049384      18.50379606
Cu      16.58767787      12.66659757      16.36086598
Cu      16.86849084      15.73595018      16.31385773
Cu      12.63097123      15.08122095      16.90278780
Cu      16.24459033      14.71054967      11.93254059
Cu      14.56548064      15.98228630      15.34421030
Cu      18.00685393      12.78184466      13.25829720
Cu      13.40057727      18.90268159      19.22264221
Cu      12.24166797      14.91117739      11.68109068
Cu      14.91169913      17.19673849      20.22354134
Cu      12.27041771      12.32091456      11.23126114
50
Lattice="30.0 0.0 0.0 0.0 30.0 0.0 0.0 0.0 30.0" Properties=species:S:1:pos:R:3 energy=-154.67220956716636 minima_index=2 pbc="T T T"
Al      14.04773243      12.90154848      15.43738846
Al      18.41372772      15.56112730      13.33274603
Al      13.87742379      13.62429352      12.70504193
Al      15.30282603      18.43203045      12.03232287
Al      15.01239095      16.41273772      18.01918097
Al      12.70431909      18.12831442      11.98266531
Al      13.90879211      16.22523657      13.18359470
Al      17.29561186      16.92108979      11.18938743
Al      16.30999357      18.25207047      16.26098986
Al      14.28758270      10.52011728      19.27705477
Al      15.48583999      11.55049955      13.62317106
Al      17.58978994      16.57172425      18.55750494
Al      18.79030461      13.90548487      15.31146644
Al      15.98608148      14.29924605      19.60277726
Al      13.80417521      18.60797351      17.11170787
Al      18.60359547      17.64623606      15.02018549
Al      11.10740663      16.59475781      13.34789346
Al      10.59242115      14.03860924      12.95815983
Al      14.02616279      13.88456513      10.02180716
Al      12.06979398      16.87402778      18.12309613
Al      16.12512991      12.59091659      11.03739140
Al      13.46335627      15.19043835      19.70518917
Al      16.44008062      11.90968809      18.41334561
Al      16.34418284      15.03689133       9.45417782
Al      18.11246793      13.97685423      17.86957867
Al      13.83147801      11.25007677      11.54465425
Al      12.10430186      11.99052074      13.74568876
Al      11.66201326      12.66507446      16.55635786
Al      16.01871815      14.30527828      14.38706959
Al      14.79406788      10.79610990      16.68023435
Cu      14.24698423      18.45119910      14.46611151
Cu      16.34158670      16.97089413      13.85200292
Cu      19.49166511      15.99261598      16.78653107
Cu      12.37295023      14.67655542      14.64857967
Cu      18.20020665      14.32281764      11.05377337
Cu      14.44889116      16.45945512      10.59770155
Cu      12.37631120      17.04902326      15.53520007
Cu      13.89802349      12.86902423      18.29687350
Cu      15.63407555      14.09731879      17.03732270
Cu      15.95425494      18.66557769      18.84905648
Cu      16.84280449      12.25452930      15.80141318
Cu      17.13573275      15.81982725      16.09422858
Cu      13.08741497      14.85761996      17.04395029
Cu      15.95751233      15.00114678      11.99929658
Cu      14.64628162      16.11752323      15.57354708
Cu      17.70049077      12.92309249      13.10772204
Cu      13.70102907      17.92999992      19.74902287
Cu      12.26212307      15.34818063      11.38251606
Cu      15.72867635      16.70809085      20.50116351
Cu      11.86121710      12.82196923      11.13215755
50
Lattice="30.0 0.0 0.0 0.0 30.0 0.0 0.0 0.0 30.0" Properties=species:S:1:pos:R:3 energy=-155.3760380897057 minima_index=3 pbc="T T T"
Al      13.62797660      12.35129608      15.83705540
Al      18.39974133      15.26052879      13.95324134
Al      13.99009988      13.63769081      12.30587689
Al      15.50499436      18.40043470      12.13344771
Al      15.02368560      16.25758729      17.94218788
Al      13.06309157      18.05234507      11.35064786
Al      14.04683849      16.19385098      12.93623793
Al      17.60541763      16.75482531      11.58296813
Al      15.89258942      18.44685206      15.87580556
Al      15.29295918      11.46879932      20.20305553
Al      15.04193728      11.51224392      13.49544149
Al      17.72252998      17.58890540      17.77380581
Al      18.12593670      13.54692239      16.07268642
Al      15.68771078      14.13486910      19.85377675
Al      13.44281433      18.31152623      16.96915793
Al      18.36263024      17.76141526      15.06069185
Al      11.51643322      16.86480428      13.10825401
Al      10.97860823      14.30911690      12.88495803
Al      14.36978416      13.82787852       9.74737417
Al      11.88249592      16.63054202      18.17687439
Al      16.35795625      12.47448247      11.12405072
Al      13.29503881      15.13144130      19.74940936
Al      17.17894148      12.23873104      18.33183660
Al      16.91174392      14.78232260       9.76497501
Al      17.73440540      14.98932769      18.44132613
Al      13.91362720      11.33094084      11.02521028
Al      12.25711345      12.03057376      13.46759798
Al      10.90872344      13.82818441      15.80962034
Al      15.51734126      14.09639482      14.63143195
Al      14.97781565      10.87604296      17.63191999
Cu      13.65437418      18.33887360      14.22394243
Cu      16.30962508      16.79452213      13.87685896
Cu      19.33631087      15.85573346      16.47501728
Cu      12.93430725      14.49565061      14.48223940
Cu      18.53171368      14.10372937      11.61713497
Cu      15.00114938      16.29362655      10.56920470
Cu      11.93377797      16.53402909      15.58989988
Cu      13.65057688      12.83140544      18.57728227
Cu      15.52228269      13.79276656      17.18661186
Cu      15.58719125      18.81013076      18.49090600
Cu      16.33081830      11.79289714      15.71518158
Cu      16.82246158      15.81406283      16.10100128
Cu      13.13227096      14.70157744      17.01293663
Cu      16.24047600      14.80039069      12.28554047
Cu      14.40556067      16.29219786      15.49783952
Cu      17.43871352      12.79349413      13.52996509
Cu      13.77438299      17.67156950      19.70591919
Cu      12.52744738      15.44169384      10.96381838
Cu      16.29190410      16.78461799      19.99183010
Cu      11.94367350      12.96615470      10.86594652
50
Lattice="30.0 0.0 0.0 0.0 30.0 0.0 0.0 0.0 30.0" Properties=species:S:1:pos:R:3 energy=-155.51791087248904 minima_index=4 pbc="T T T"
Al      13.76056566      12.04941619      15.86906191
Al      18.14240912      14.97822386      13.33546825
Al      13.38448912      14.16850340      12.44910572
Al      15.60335072      18.75356790      12.94877443
Al      15.66469786      15.80949846      17.97936788
Al      13.09546769      18.76993537      12.19052090
Al      13.38018203      16.48074728      13.54916096
Al      17.21688235      16.86706536      11.57952475
Al      16.16172838      18.18407783      15.86277169
Al      16.31353875      11.09020367      19.65819964
Al      14.41525409      11.77960923      13.14975958
Al      18.26529967      17.15084339      17.30311619
Al      18.19076018      13.19428925      15.31697414
Al      16.46496992      13.71333290      19.60036205
Al      13.96923785      18.06375893      17.48250892
Al      18.19866859      17.48543535      14.30497058
Al      11.19946619      17.90617507      13.73642790
Al      10.88870506      15.25572615      13.73286405
Al      13.38987665      14.67781644       9.92291712
Al      12.47383750      16.21675365      18.46814048
Al      15.32061947      12.78819821      10.61582241
Al      14.00418488      14.61094651      19.88754921
Al      17.80608006      11.75661355      17.59654942
Al      15.94368402      15.34247464       9.61686099
Al      18.30926705      14.50110246      17.83608383
Al      12.73805084      12.08873494      10.97235600
Al      11.73668340      12.47423787      13.59085463
Al      11.01804308      14.38683601      16.73748242
Al      15.39753350      13.92981381      14.51870897
Al      15.46335265      10.49242164      17.27647579
Cu      13.71735679      18.56554580      14.87431573
Cu      15.89711261      16.48369103      13.79238211
Cu      19.48294440      15.53468920      15.60855362
Cu      12.89019889      14.32191626      14.97416446
Cu      17.77664338      14.08956116      10.88498649
Cu      14.54519492      16.78633917      11.28224521
Cu      12.08369067      16.67144777      15.88563568
Cu      14.29486897      12.33382522      18.63189848
Cu      15.93582052      13.34788433      16.97290069
Cu      16.36054663      18.32338050      18.54866432
Cu      16.28422822      11.50433899      15.09846420
Cu      16.99561982      15.50959262      15.78136360
Cu      13.62287071      14.29348519      17.30046089
Cu      15.76634711      14.76233495      12.10516779
Cu      14.49324369      16.11695264      15.81162002
Cu      16.94505182      12.61906145      12.83783792
Cu      14.67034810      17.08753029      19.92524240
Cu      11.93854349      16.38946527      11.44553699
Cu      17.33463299      16.29005994      19.73845173
Cu      11.04784995      14.00253889      11.41136688
50
Lattice="30.0 0.0 0.0 0.0 30.0 0.0 0.0 0.0 30.0" Properties=species:S:1:pos:R:3 energy=-155.51876980218208 minima_index=5 pbc="T T T"
Al      13.16253570      12.31476548      15.77338110
Al      18.26421967      14.37159209      13.68563611
Al      13.57354527      14.36907397      12.33805738
Al      16.55802860      18.46515504      13.04260213
Al      15.43180648      15.79145410      18.02169148
Al      14.20578995      18.91656922      11.93182610
Al      13.79557423      16.71277895      13.35725950
Al      17.85924904      16.28744982      11.81654074
Al      16.58169265      17.94595315      15.93011704
Al      15.27932223      11.15615264      19.78923715
Al      14.06308947      11.82639733      13.16644626
Al      18.30586744      16.64426266      17.62085065
Al      17.75754707      12.70937616      15.67499755
Al      15.71374797      13.71724180      19.81230637
Al      14.27580629      18.43265506      17.26757115
Al      18.59681588      16.88073974      14.57195526
Al      11.92236671      18.51501043      13.10502790
Al      11.14002577      15.96013497      13.26348579
Al      13.91138060      14.69190675       9.80748315
Al      12.46837231      16.77555249      18.01870324
Al      15.39711155      12.53725541      10.75206066
Al      13.41722976      14.99747407      19.74446256
Al      16.98160334      11.34577738      17.83551326
Al      16.55373739      14.88882637       9.76681814
Al      17.81568710      14.02836025      18.18708434
Al      12.70471087      12.34454425      10.86498880
Al      11.53418099      13.02944287      13.33119464
Al      10.79295827      15.31011212      16.26965467
Al      15.19722589      13.84398681      14.64153865
Al      14.41578694      10.57900127      17.40809119
Cu      14.38132060      18.78202340      14.65052789
Cu      16.20090992      16.19848040      13.88570847
Cu      19.37204744      14.80666801      16.09172468
Cu      12.77773248      14.74561986      14.77383766
Cu      18.00395808      13.39359301      11.25015586
Cu      15.28729189      16.63331268      11.25342643
Cu      12.29596832      17.34237631      15.43057173
Cu      13.46904961      12.60479344      18.66218548
Cu      15.42396373      13.22726016      17.14949067
Cu      16.50869446      18.17998117      18.59911589
Cu      15.62212038      11.31823240      15.31994998
Cu      16.90529195      15.18908267      15.99918182
Cu      13.27963612      14.53723340      17.14289866
Cu      16.03836999      14.45292998      12.23280737
Cu      14.51717834      16.27689535      15.76874254
Cu      16.71693440      12.21343954      13.15847759
Cu      14.48098038      17.34830155      19.78764929
Cu      12.67543791      16.74129430      11.06680135
Cu      17.00533281      16.06248690      19.92568241
Cu      11.36076576      14.55699284      11.05448126
50
Lattice="30.0 0.0 0.0 0.0 30.0 0.0 0.0 0.0 30.0" Properties=species:S:1:pos:R:3 energy=-155.5240974054027 minima_index=6 pbc="T T T"
Al      12.99844750      12.59664992      16.16464078
Al      17.69182127      13.97692328      12.92704166
Al      12.88041571      14.68182098      12.77692512
Al      16.53382203      18.31092545      12.77570485
Al      16.27251563      15.59398775      17.81991882
Al      14.07919733      19.12380548      12.26792130
Al      13.69205366      16.92240355      13.72868875
Al      17.18359756      16.01419853      11.24059814
Al      17.16848902      17.63028703      15.55869886
Al      15.82691499      10.92114908      19.56617670
Al      13.15602298      12.06903533      13.42780064
Al      19.05205431      16.02755001      16.72376613
Al      17.45016579      12.29775280      14.96659991
Al      16.66173627      13.40228990      19.44290418
Al      15.38866954      18.36579357      17.43824552
Al      18.62536676      16.36836576      13.74366791
Al      12.13066989      18.98503368      13.97974411
Al      11.00057002      16.57242571      14.19861412
Al      12.74368521      15.08501651      10.22410167
Al      13.57960826      16.98769632      18.60805556
Al      14.01029478      12.68243910      10.75119929
Al      14.64830674      15.00796449      19.99590479
Al      17.01163250      10.99501521      17.25754088
Al      15.29223452      14.93280963       9.53584979
Al      18.33707727      13.49086801      17.37119988
Al      11.42991055      12.88440543      11.46388755
Al      10.92576862      13.63769913      14.14288861
Al      11.32082407      15.89933020      17.33876401
Al      14.89035676      13.86560066      14.58293801
Al      14.33379354      10.62294171      17.44976717
Cu      14.88147654      18.82353830      14.86281716
Cu      16.05490782      16.07674773      13.63649534
Cu      19.42145237      14.12436541      14.95896389
Cu      12.70457138      15.07695580      15.34535847
Cu      16.73066603      13.12568779      10.62383038
Cu      14.64072457      16.75641939      11.32528483
Cu      12.86420328      17.66553645      16.12934186
Cu      14.07138298      12.69751769      18.90536547
Cu      15.64083412      13.11509984      16.94368583
Cu      17.83562716      17.77500342      18.15803183
Cu      15.09184934      11.27282870      15.12883307
Cu      17.09059283      14.85667248      15.49850048
Cu      13.78053145      14.71132540      17.51025346
Cu      15.23767593      14.44378043      12.04568925
Cu      14.89689778      16.27184938      15.87236983
Cu      15.76365915      12.09211496      12.78021519
Cu      16.07085722      17.14638470      19.81058589
Cu      12.10320454      17.22512716      11.75588262
Cu      18.29235152      15.53565601      19.27233734
Cu      10.51051090      15.25520478      11.96640311
50
Lattice="30.0 0.0 0.0 0.0 30.0 0.0 0.0 0.0 30.0" Properties=species:S:1:pos:R:3 energy=-155.52782412331777 minima_index=7 pbc="T T T"
Al      12.99418433      12.66086315      16.28645175
Al      17.62903162      13.88916427      12.93217690
Al      12.80688480      14.61613761      12.79953436
Al      16.54165338      18.24888211      12.59967108
Al      16.33606741      15.65697465      17.77897067
Al      14.06955558      19.05561094      12.18597450
Al      13.70463554      16.84641955      13.66167337
Al      17.13889338      15.88348392      11.16114043
Al      17.24943072      17.63718904      15.41192670
Al      15.71133798      10.96153293      19.82855544
Al      13.07972228      12.04589760      13.56026521
Al      19.11425958      16.04309197      16.60886539
Al      17.42500841      12.27359716      15.04744119
Al      16.72137353      13.40030831      19.41424794
Al      15.46795464      18.40131851      17.30215258
Al      18.65762545      16.27343034      13.61876902
Al      12.16209855      18.93135121      13.94429586
Al      10.99986833      16.54798312      14.23390283
Al      12.62837433      15.01070882      10.25890866
Al      13.67893751      17.10894402      18.60896093
Al      13.90417849      12.60716078      10.84339749
Al      14.80706651      15.13133233      19.98518978
Al      16.99176394      11.14706102      17.49978583
Al      15.15316950      14.78936172       9.51979310
Al      18.40098855      13.56104022      17.35619007
Al      11.33200534      12.80918921      11.58725555
Al      10.87889343      13.64888501      14.25671577
Al      11.38769902      15.97108331      17.39604513
Al      14.87298242      13.88305596      14.58632835
Al      14.34835138      10.70534564      17.57810622
Cu      14.93734207      18.75695131      14.72914705
Cu      16.08900248      16.05629330      13.56936701
Cu      19.42802176      14.06318851      14.90488578
Cu      12.71964928      15.09360820      15.36957917
Cu      16.62442759      13.04031357      10.64867209
Cu      14.60410840      16.69867290      11.23707634
Cu      12.94188126      17.66382065      16.10036154
Cu      14.11532107      12.82893704      18.95033935
Cu      15.64541812      13.21445336      16.94732622
Cu      17.91421507      17.80510736      18.01528545
Cu      15.06025462      11.31453816      15.23676539
Cu      17.11585337      14.85934909      15.45425709
Cu      13.82622256      14.82845304      17.53035928
Cu      15.16414296      14.41738691      12.05195167
Cu      14.96366914      16.27995202      15.80880099
Cu      15.66894750      12.06348134      12.84803732
Cu      16.17451642      17.29882023      19.72150340
Cu      12.05128401      17.17242008      11.75822634
Cu      18.32630674      15.58926514      19.23558393
Cu      10.43541966      15.20858336      12.02978248
50
Lattice="30.0 0.0 0.0 0.0 30.0 0.0 0.0 0.0 30.0" Properties=species:S:1:pos:R:3 energy=-155.5281191165765 minima_index=8 pbc="T T T"
Al      13.27014220      13.37589480      17.33004916
Al      16.68554705      13.01089456      12.59305870
Al      12.22836806      14.60643713      13.67549169
Al      15.99647677      17.36323170      11.55993672
Al      17.22785361      15.95003385      17.02206589
Al      13.63538785      18.52283829      11.67234263
Al      13.56301292      16.79292916      13.69368358
Al      15.87858333      14.67557055      10.61172310
Al      17.50929229      17.21950284      14.08526390
Al      16.75480136      12.00468275      20.21541763
Al      12.41824103      12.19227316      14.90110336
Al      19.47352062      15.58530413      15.04293611
Al      16.97062041      11.93609084      15.01883958
Al      17.86238988      14.06671186      18.98353479
Al      16.54576287      18.63563582      16.18258799
Al      18.10114814      15.29121783      12.35528301
Al      12.45113668      19.13346205      13.90991245
Al      11.19779823      17.10118685      15.08631469
Al      11.27142794      14.47972868      11.28175989
Al      15.14677232      18.00875356      18.24389843
Al      12.36095636      12.04279423      12.02776647
Al      16.44246115      16.17846718      19.65540420
Al      17.21834894      11.41884560      17.68596647
Al      13.39488001      13.66927261       9.91848466
Al      18.76584546      13.46606987      16.55855752
Al      10.22073879      12.90236744      13.42025461
Al      10.78930789      14.24916589      15.82812300
Al      12.46336801      17.04425584      17.99732327
Al      14.63106064      13.82208213      14.91683152
Al      14.71428424      11.52200266      18.65235301
Cu      15.27053183      18.62650222      13.85136364
Cu      15.64293827      15.50278698      13.09691216
Cu      19.01071844      13.27673762      13.87086004
Cu      13.01322029      15.56833520      15.95706836
Cu      14.92584094      11.91356512      10.96043673
Cu      13.61332095      15.93252680      11.25310667
Cu      13.74167511      18.15421206      15.98149706
Cu      15.17104527      13.89455888      19.45408550
Cu      16.02592285      13.56045997      17.06933216
Cu      19.02107541      17.78559538      16.25577881
Cu      14.71021982      11.46599026      16.11641860
Cu      17.10582101      14.56641483      14.83945682
Cu      14.70441397      15.57996476      17.72197044
Cu      14.15008112      13.75682396      12.35656355
Cu      15.36861188      16.38701992      15.43378417
Cu      14.62472345      11.55922299      13.52037683
Cu      17.88992139      17.93535631      18.46731925
Cu      11.43242514      16.98450526      12.32376918
Cu      19.57339627      15.81623255      17.78720357
Cu       9.81456155      15.46548507      13.55642844
50
Lattice="30.0 0.0 0.0 0.0 30.0 0.0 0.0 0.0 30.0" Properties=species:S:1:pos:R:3 energy=-155.53200531767476 minima_index=9 pbc="T T T"
Al      16.36183788      17.04444684      17.26243975
Al      13.89838248      11.84965898      16.18372582
Al      12.55498341      16.52392529      16.14544299
Al      12.30217586      13.21060933      12.19056415
Al      17.73670517      14.45461942      13.55333677
Al      11.13014359      15.54638138      11.83570783
Al      12.99998963      16.09522150      13.66129777
Al      11.63982661      12.06093208      14.71729457
Al      15.22641223      13.18927500      12.05477764
Al      20.64189281      15.10141384      17.66400699
Al      13.95295164      16.24111894      18.43632511
Al      17.15684734      11.53601645      13.04789817
Al      16.24870916      12.41944436      17.28982490
Al      19.93149781      14.28260179      15.26847017
Al      16.43531169      15.44593042      11.15412480
Al      14.15966439      11.26745047      13.55323940
Al      12.41687894      17.81009316      11.79463139
Al      13.02245273      18.79717489      14.20884423
Al      10.02477620      16.09258220      16.36956650
Al      17.59387992      17.38660124      12.36756692
Al      11.43557669      14.84364001      18.40662499
Al      19.62335192      16.44461536      13.79451070
Al      18.71917868      13.32726444      17.92618775
Al       9.92921324      13.44893445      16.39589153
Al      18.31789605      12.17223761      15.39741784
Al      11.51685910      17.52122489      18.36077530
Al      13.72537855      18.66862952      17.05577689
Al      16.22417342      19.17045609      14.07412790
Al      14.87769558      14.91490307      16.21125030
Al      18.36641943      15.89470049      18.66524197
Cu      13.79753537      15.34056476      11.40699146
Cu      13.62387845      13.71150727      14.18076991
Cu      16.09732778      10.62649658      15.28181495
Cu      14.82980154      17.29494701      15.15759659
Cu      11.74510572      12.18765832      17.67804456
Cu      10.98108785      14.59841635      14.26388012
Cu      14.93317439      17.50416637      12.48922422
Cu      19.06976491      16.66304070      16.33874403
Cu      17.44585790      14.69423925      16.21167072
Cu      17.76649505      13.18356855      11.18230004
Cu      16.15859455      14.67439525      18.50956521
Cu      15.92544748      13.05931374      14.74217419
Cu      17.17121077      16.73530376      14.77623236
Cu      12.40987830      14.05203795      16.23823560
Cu      15.42756754      15.35640068      13.59627147
Cu      13.85741369      13.55564254      18.25522545
Cu      19.12941960      15.24083721      11.57514228
Cu      10.75170336      17.21444814      14.01765574
Cu      19.54880876      12.87148862      12.98681524
Cu      11.15886483      18.67342344      16.06475485
