50
Lattice="30.0 0.0 0.0 0.0 30.0 0.0 0.0 0.0 30.0" Properties=species:S:1:pos:R:3 energy=-155.42327818040764 minima_index=10 pbc="T T T"
Al      15.22589661      13.42165650      15.55933687
Al      17.30464496      18.77422879      12.42372942
Al      15.47931585      13.79902833      12.81375853
Al      12.21127829      18.53480337      12.87574126
Al      13.54230371      15.24262620      16.65197228
Al      12.66136691      13.88196765      11.55561092
Al      13.72341494      16.32640926      12.13980114
Al      18.76727348      17.31837537      10.92920383
Al      14.90010319      18.09226200      16.05987120
Al      15.13129764      12.17108985      20.08291949
Al      17.60789825      14.60993553      14.45531873
Al      14.97982413      16.94896095      18.53505783
Al      18.79302341      16.10016708      16.35417055
Al      15.29377055      15.02957731      20.49481457
Al      10.57849929      17.63520409      15.23493397
Al      17.19940405      17.63266492      14.81022221
Al      11.20034694      15.90511662      12.98888690
Al      13.26038477      11.89544590      13.35205564
Al      14.61847153      12.10428639      10.99894044
Al      11.51531839      13.86375555      17.81631393
Al      16.96323104      13.27218759      10.48286621
Al      13.04320176      13.64104166      19.97200968
Al      17.39228653      13.28688906      19.60998566
Al      17.12909825      15.83435861       9.65783651
Al      17.46819007      15.78926056      18.87159654
Al      18.00854773      12.51988514      12.77772552
Al      17.39550338      11.84490603      15.27446441
Al      14.49238983      10.93442618      15.62393439
Al      16.65597101      16.15173976      12.31703632
Al      16.20858896      11.63385296      17.66143694
Cu      12.98406618      16.91221926      14.72005482
Cu      14.94243961      18.22273026      13.36279025
Cu      17.21810107      17.95811636      17.43236936
Cu      13.25287155      14.48308145      14.02004161
Cu      18.72350216      14.77776479      11.70202513
Cu      14.90576901      14.84575191      10.44349161
Cu      11.22852657      15.06368410      15.45307579
Cu      13.68414536      12.32355781      17.77946975
Cu      15.29906596      14.13710246      18.19394147
Cu      12.61862566      17.66741749      17.13621141
Cu      17.63249558      13.78666048      17.03597552
Cu      16.22517996      15.78491684      16.55671586
Cu      12.51044061      12.79940635      15.67440695
Cu      15.52154981      17.70843200      10.74809597
Cu      15.21004134      15.91466449      14.39665158
Cu      19.07374509      16.60206102      13.43620899
Cu      10.68180800      16.25975057      17.54288541
Cu      11.05157423      13.33829033      13.61235062
Cu      12.71428999      15.93560970      19.03730858
Cu      15.77091680      11.28267315      13.33437741
