50
Lattice="30.0 0.0 0.0 0.0 30.0 0.0 0.0 0.0 30.0" Properties=species:S:1:pos:R:3 energy=-155.95777446677283 minima_index=10 pbc="T T T"
Al      14.57191031      12.64384396      15.70471393
Al      17.81966766      16.76184657      14.49679433
Al      15.87949146      12.82717492      13.36124036
Al      15.69251835      18.97790057      11.93121679
Al      14.11219449      16.33141537      17.89455569
Al      13.66416937      17.63648373      11.03305797
Al      14.11427051      14.91030402      11.41170055
Al      17.82818818      17.46875001      11.96347885
Al      13.62583460      18.66549550      16.38207511
Al      15.49688628      11.74686095      18.04908866
Al      18.04516865      11.34961458      13.99031303
Al      15.45067719      18.54118832      18.37327834
Al      18.00612953      15.19995458      16.72294131
Al      16.68341000      16.18890293      18.92692682
Al      11.45044061      17.86746960      14.82140185
Al      15.91368668      18.74637490      14.59347578
Al      12.25580167      16.29704797      12.78503932
Al      11.60237576      13.28863056      12.68998743
Al      16.14573595      13.37906228      10.53346036
Al      10.86188060      14.15794908      17.32852466
Al      18.37071283      12.94319478      11.88913780
Al      12.28912716      15.21579257      19.25831194
Al      14.78584312      14.20568544      19.71562718
Al      18.18451713      15.18346810      10.30287350
Al      17.38650367      13.49640902      18.79208485
Al      16.19331798      10.75590884      12.00036424
Al      15.76489691      10.45589285      14.94548019
Al      11.84061078      12.56203742      15.41333514
Al      15.85479821      14.92696943      14.88373270
Al      13.38781635      10.58007308      16.55863165
Cu      13.54161436      18.62360648      13.52486351
Cu      15.16052494      16.71783230      13.07032089
Cu      17.85229918      17.83831858      17.14558450
Cu      13.61399650      14.21656933      13.85177001
Cu      19.31387575      15.41504347      12.61587485
Cu      15.94470860      16.49916208      10.52460226
Cu      11.31028284      15.15725263      14.87812082
Cu      13.15135922      12.86604802      18.06254241
Cu      15.55141719      14.34225835      17.32292833
Cu      12.74271840      18.11707463      18.89134814
Cu      17.11971483      12.65560081      16.13199187
Cu      15.85179555      16.93750873      16.30130127
Cu      13.18027650      14.60938656      16.37976558
Cu      16.81683851      15.04925961      12.45346057
Cu      13.66690692      16.54096149      15.02823399
Cu      18.24757620      13.98416069      14.33554323
Cu      11.72886187      16.64391471      17.00421401
Cu      13.96809301      12.34984402      11.62226965
Cu      14.42769898      16.79879552      20.31858996
Cu      13.53085868      11.32570003      13.78382384
