50
Lattice="30.0 0.0 0.0 0.0 30.0 0.0 0.0 0.0 30.0" Properties=species:S:1:pos:R:3 energy=-155.33532516708198 minima_index=10 pbc="T T T"
Al      15.04338715      11.47172094      13.72006208
Al      15.38144431      15.72386824      10.07657385
Al      14.76159422      11.21711806      11.09196578
Al      12.78704085      14.69449044       9.48502627
Al      15.03033200      14.49794793      16.06137219
Al      10.70982979      12.99484337      10.13808228
Al      12.91943960      13.10097771      11.54113458
Al      16.77443137      13.14625402       7.68444047
Al      15.31038920      16.01713041      13.87754884
Al      17.40941569      10.25250578      16.97443839
Al      16.63249575       9.68913063      12.50714053
Al      16.11481625      16.78068624      16.92672765
Al      18.99644926      13.42265608      14.02473083
Al      16.54237508      14.43092928      18.16474070
Al      12.29514940      15.94018235      14.11484168
Al      17.61826676      15.17680606      12.61962655
Al      10.19936639      12.09599915      12.58975056
Al      11.03264314       9.48573359      13.27721760
Al      15.07358508      10.91661997       8.21322340
Al      10.82241322      11.20543225      15.28027538
Al      17.16655195      11.35232507       9.81861308
Al      14.01870875      13.00243793      18.08749338
Al      16.30435709      11.82559301      18.67309043
Al      13.91875671      13.40756818       7.19953853
Al      18.08260730      12.94380751      16.51927025
Al      15.89188613       9.00304874      10.06722132
Al      13.76345299       9.21228425      12.51448559
Al      13.03588713       9.60680981      15.17410356
Al      15.41280441      13.87914099      11.99093686
Al      15.69928970       9.37302700      15.17351040
Cu      11.07904180      14.72395818      12.10659680
Cu      13.49411494      15.65784068      11.88767045
Cu      17.58197513      15.34167645      15.41259645
Cu      12.57832662      11.50018767      13.41703674
Cu      17.37246433      13.94164610      10.25592103
Cu      12.85654700      11.91403072       9.14537290
Cu      11.34504719      13.54209605      14.35563958
Cu      14.42017675      10.38293644      17.33043041
Cu      15.72750467      12.02881535      16.14762928
Cu      13.75988797      16.79514913      15.95983075
Cu      17.61246376      11.18345605      14.54052135
Cu      16.48507325      13.48551297      14.27381579
Cu      13.24467022      12.16852679      15.75811546
Cu      14.98898104      13.23780259       9.55103279
Cu      13.76104704      13.83471759      13.94497623
Cu      17.37915187      12.24174520      12.23769843
Cu      12.50561726      14.54543052      16.36752216
Cu      11.88519870      10.69917284      11.13372642
Cu      14.09922305      15.62212322      18.19040445
Cu      13.41682524       9.43604436       9.69892220
