50
Lattice="30.0 0.0 0.0 0.0 30.0 0.0 0.0 0.0 30.0" Properties=species:S:1:pos:R:3 energy=-155.25745802668865 minima_index=10 pbc="T T T"
Al      13.91528426      13.19046675      15.94484135
Al      18.36295173      17.11118516      11.37665513
Al      15.11243507      14.08033883      13.71086600
Al      15.90445677      18.34949693      11.59588379
Al      13.25417667      15.75175639      16.91009312
Al      13.26245628      18.76209766      12.15020570
Al      14.44672220      16.61112862      12.96150268
Al      17.82785408      14.62564563       9.93482953
Al      16.81875947      18.39810170      16.11085012
Al      13.44211795      12.95973107      20.31520237
Al      16.65664383      12.19462403      14.85949265
Al      15.83889174      16.56621386      17.91091288
Al      18.55216049      13.48384055      16.35528518
Al      15.17796400      15.37996016      20.29248877
Al      12.75970521      17.90038185      14.74613127
Al      19.54904882      16.64660415      13.99321761
Al      11.75790926      16.59077108      12.58470613
Al      12.39816196      12.66345870      13.72051877
Al      15.15582114      14.14079084      10.36962680
Al      10.69778790      15.50293126      17.72037811
Al      17.07049419      12.95013348      12.00444229
Al      12.52623931      15.34748203      19.61622589
Al      15.98828399      12.69414213      19.99132500
Al      16.20711393      16.62546901       9.61472189
Al      17.37563511      14.48936505      18.59770483
Al      16.45886881      10.41245645      12.84392111
Al      14.29264773      10.94029173      14.59503571
Al      12.06936465      11.36070463      16.15464614
Al      17.60006630      14.79832563      14.22052044
Al      14.01084258      11.45542820      18.09904883
Cu      15.10698811      18.87981320      14.19498722
Cu      17.04160576      17.30525608      13.75354051
Cu      17.98109821      16.15038680      16.34718255
Cu      12.90705392      15.18253472      14.44369281
Cu      19.10080199      14.71861333      12.15252310
Cu      13.78996955      16.54444459      10.55817921
Cu      10.84246421      16.32144422      15.28745283
Cu      12.17208411      13.30810241      18.00699143
Cu      14.63433120      14.06321156      18.26686917
Cu      14.30342972      18.38583221      16.72064582
Cu      16.35391796      12.26014242      17.44417541
Cu      16.10605661      14.43766876      16.29592834
Cu      11.26052854      13.86650026      15.76475858
Cu      16.50843175      15.55353120      11.98195884
Cu      15.22787365      16.46206138      15.31672466
Cu      18.98010638      12.68572865      13.79074563
Cu      11.81789237      17.80454432      17.26097646
Cu      13.17745625      14.46173733      11.96253879
Cu      13.69641246      17.47198091      18.98331123
Cu      14.50063179      12.15314211      12.16553735
