50
Lattice="30.0 0.0 0.0 0.0 30.0 0.0 0.0 0.0 30.0" Properties=species:S:1:pos:R:3 energy=-155.02505576225028 minima_index=31 pbc="T T T"
Al      14.44316149      13.67180216      15.45192453
Al      19.15990844      15.50890247      13.90807819
Al      15.00328749      13.34382648      12.92376241
Al      15.86743906      18.25184489      11.43775204
Al      13.99054479      16.76745816      17.51855914
Al      13.33511545      17.14952411      11.74557833
Al      15.40066840      16.04058982      12.67906078
Al      19.82664468      14.51187629      11.58699921
Al      16.10623802      18.14527670      16.36391839
Al      14.42622069      12.13223568      19.29444520
Al      16.45689471      11.92624443      14.95283782
Al      16.52344909      16.98379029      18.82231959
Al      18.46101367      13.58779443      16.14748378
Al      14.02291134      16.63917994      20.07823334
Al      13.46103203      18.88365146      16.14589619
Al      18.24095014      16.39865981      16.33940720
Al      12.34446070      17.40856552      14.22535171
Al      12.17211314      12.97097533      12.60309285
Al      15.89057352      13.12482148      10.09338043
Al      10.17004559      14.74775357      16.69722494
Al      17.24404523      14.29027380      11.98864769
Al      11.72433045      15.72008060      18.66370957
Al      13.04729313      14.10161556      20.30384513
Al      18.12416412      14.76850200       9.58412006
Al      15.73539391      14.51316950      19.71190562
Al      16.58360924      11.41430884      12.22910336
Al      13.79294380      11.30367398      14.05148668
Al      11.79847959      12.90844925      15.25453953
Al      16.76113144      14.70934645      14.59602485
Al      13.77290269      11.58814158      16.83037492
Cu      14.77865092      18.45088394      13.80975412
Cu      17.11898523      17.31981732      14.06611257
Cu      17.95368891      14.70895273      18.39526786
Cu      13.15130709      15.06677273      13.53634418
Cu      18.48617141      12.40915354      10.79453559
Cu      15.83857517      15.84604625      10.18639837
Cu      10.80590307      15.19769013      14.24378222
Cu      11.84184100      13.11304326      17.93254353
Cu      13.96924450      14.23887066      17.89699443
Cu      14.77540335      18.94535260      18.58228793
Cu      16.17723638      12.88633509      17.44497425
Cu      16.02519560      15.29949509      16.96140293
Cu      12.55263578      15.26346418      16.04664795
Cu      17.96539060      16.67472982      11.68069177
Cu      14.67951338      16.35634038      15.10271435
Cu      18.57694286      12.82591692      13.54507630
Cu      11.27915221      17.29411510      16.58611164
Cu      13.77605200      14.53986685      11.03316839
Cu      12.33877617      18.33207368      18.64729066
Cu      14.02236835      11.71874513      11.27883744
