50
Lattice="30.0 0.0 0.0 0.0 30.0 0.0 0.0 0.0 30.0" Properties=species:S:1:pos:R:3 energy=-155.5762488297513 minima_index=10 pbc="T T T"
Al      14.84572323      13.05015535      15.83123809
Al      18.49382892      16.04278201      10.83050374
Al      14.66239078      12.89945150      12.70905732
Al      15.93804969      16.99427527      10.98396204
Al      14.69897831      17.02683357      17.44587692
Al      13.30049207      17.14224030      11.58804864
Al      14.75414079      15.58802353      13.08467267
Al      18.45384027      13.32506372      10.34144912
Al      14.31275565      19.20887874      15.70912063
Al      15.46524091      13.51235740      20.25538554
Al      16.64550323      11.30237406      15.19376197
Al      15.86619338      19.19567447      18.16731959
Al      18.66563617      15.39953386      15.26252797
Al      16.04989933      16.25788234      19.79946890
Al      11.68023119      18.15849047      15.83915492
Al      17.33936479      16.55038906      13.34745589
Al      11.57837338      16.49341941      13.53670073
Al      11.98408823      12.37936853      13.15703229
Al      15.79913959      12.55948276      10.19431114
Al      11.39384356      14.18846594      18.14597347
Al      17.39113023      11.96587233      12.42652299
Al      13.50544361      15.21554260      19.52274988
Al      17.77663388      14.15665896      19.15002255
Al      16.69777825      14.96579302       9.16199402
Al      17.48648568      16.32972010      17.50604004
Al      13.87053097      10.99211033      14.36859497
Al      14.23712236      10.70977858      16.94250246
Al      12.16154323      12.57793194      16.09501671
Al      16.72682531      13.84157687      14.11959116
Al      16.24428459      11.96204107      18.13875128
Cu      12.81084204      18.77665845      13.58184490
Cu      15.19937287      18.08586864      13.44747541
Cu      16.55476482      17.90439150      15.61770429
Cu      13.01825490      14.33425679      14.42188387
Cu      18.92240292      14.32121031      12.77160690
Cu      14.43224713      14.81919560      10.49185613
Cu      11.23339804      15.49009820      15.86718455
Cu      13.69169576      12.84174945      18.32476703
Cu      15.57255120      14.53467170      17.90329037
Cu      13.04538430      19.12412767      17.89256469
Cu      17.48721127      13.58711609      16.59152147
Cu      15.76658571      15.57500126      15.58883760
Cu      13.41797171      14.92061964      16.80738358
Cu      16.62136635      14.49926014      11.68228130
Cu      13.62484361      16.77156396      15.07741459
Cu      18.88414784      12.64336524      14.66666204
Cu      12.11884742      16.77266870      17.95056738
Cu      12.46892781      14.62117810      11.97752129
Cu      13.91934552      17.78851029      19.76938883
Cu      13.18434724      12.59632017      10.71343613
