50
Lattice="30.0 0.0 0.0 0.0 30.0 0.0 0.0 0.0 30.0" Properties=species:S:1:pos:R:3:forces:R:3 energy=-153.04439731203394 pbc="T T T"
Al      15.53391336      12.41877948      15.31330411      -0.00730353       0.00644777      -0.02537529
Al      19.60044735      16.54282706      11.83438459       0.00141337       0.02226760       0.00303689
Al      15.57779163      13.27649044      12.85952813       0.01215588      -0.02253739       0.00235413
Al      15.81274102      18.38371535      11.00367608      -0.00120707       0.00393468      -0.01656549
Al      14.92646961      15.33352464      16.71181047      -0.01235624      -0.00549081       0.01788988
Al      13.35523777      17.58224680      11.11050810      -0.00626645      -0.00635462       0.00886038
Al      15.11072344      15.82495250      11.79466013       0.00696074       0.00404704      -0.00677902
Al      19.58625564      16.31871010       9.16546278       0.00129048      -0.00717447      -0.02127201
Al      16.87120787      17.16521893      15.69092545      -0.01874183       0.01876416       0.01248411
Al      14.28323611       9.39470286      19.36332227       0.00865745       0.03104467      -0.00516575
Al      18.04727458      12.45671114      13.98062177      -0.01050144      -0.01254677       0.01125820
Al      17.07268139      15.96008610      18.15729854      -0.02808770       0.01404232      -0.01691382
Al      19.75139640      13.60569630      15.66193225      -0.03226883       0.01755802      -0.01335050
Al      16.60612742      14.19432497      20.08514168      -0.00219236      -0.02019316       0.02817683
Al      13.73982887      17.38375415      15.60187830       0.00722778      -0.01836884      -0.01434041
Al      19.03547124      15.93630556      14.38732109       0.02106478       0.00657730       0.00460655
Al      12.90477874      16.14921044      13.35194998       0.01538588      -0.01803858       0.00792845
Al      13.46600579      11.58595350      13.33732302      -0.00320150       0.02835593      -0.01369611
Al      15.87245071      13.93170211      10.09758730       0.02890616      -0.00397992       0.00373993
Al      11.51268059      13.99373462      18.18073669       0.00673626       0.00787610      -0.00793221
Al      18.70578795      14.01528555      10.14707273      -0.00981657      -0.01805205       0.00626286
Al      13.97843811      14.01436940      19.27665861      -0.03053477      -0.02140306      -0.01413171
Al      15.46624105      11.77758415      19.81821316       0.00454820       0.00170399      -0.01308679
Al      17.26574170      15.30143700       8.18837471       0.00615217      -0.00105298       0.00663819
Al      18.55316622      13.71391706      18.17209313       0.03151205      -0.00603678      -0.01894944
Al      17.45157192      11.98438459      11.37688163      -0.00309549       0.00084597      -0.00307068
Al      15.98682300      10.65225399      13.30399025      -0.01991341       0.01981294       0.01713093
Al      13.31140860      10.88607310      15.86542981       0.02780381      -0.00711757      -0.01944293
Al      17.60321995      14.75020919      12.50919475      -0.01518999       0.00691386      -0.00628660
Al      15.48518763      10.68348455      17.35751760       0.02295871       0.01080582       0.01285364
Cu      14.87748592      17.93604687      13.39738978      -0.02926023       0.00038841       0.01579900
Cu      17.20806856      17.26720947      12.97248964       0.01775406      -0.01284194       0.00543723
Cu      19.25347125      15.87059963      16.88802091       0.00634800       0.00006926       0.01611603
Cu      13.60479921      13.94463068      14.39397935      -0.03149542       0.02143723      -0.02909680
Cu      21.04391664      14.82271043      10.70255635       0.01418008      -0.00713629       0.01417091
Cu      15.11449385      16.44956019       9.29685092       0.00791344      -0.00020720       0.02415173
Cu      12.24658073      15.29271668      15.94927083       0.00777510      -0.00097778      -0.01771506
Cu      13.16387003      11.56825194      18.50617514       0.01821217      -0.00913013       0.02342090
Cu      16.01411857      13.26582250      17.74645796      -0.01331193      -0.01880444       0.01825107
Cu      15.18412128      17.78800415      17.67593200       0.01288831      -0.01488342       0.00603075
Cu      17.79541943      11.89715262      16.53237047       0.01399927      -0.00343373      -0.00003342
Cu      17.28426035      14.42159596      15.76574768       0.03668176      -0.00264413      -0.00178558
Cu      13.55189046      13.22601864      16.77652231      -0.00571163       0.00587994       0.02103932
Cu      17.35625952      16.39695359      10.49502981      -0.00760506      -0.01112336       0.01085351
Cu      15.57828216      15.54079789      14.25177688      -0.02604151       0.01576079      -0.03122363
Cu      19.97842539      13.92784838      12.79543506       0.01485343      -0.02174767       0.00098601
Cu      13.02523653      16.29853477      18.10988385       0.00018141      -0.00146940       0.01689908
Cu      13.38404343      13.86089810      11.75756830      -0.03344392       0.02124841      -0.00157903
Cu      15.01683233      16.29125579      19.66112050       0.00924143       0.01189005      -0.01262068
Cu      14.79017937      11.67431940      11.05767262      -0.01525532      -0.00492580      -0.00596357
