60
Lattice="40.0 0.0 0.0 0.0 40.0 0.0 0.0 0.0 40.0" Properties=species:S:1:pos:R:3 energy=-405.2408061027527 minima_index=1 pbc="T T T"
C       19.54094186      17.57369739      21.43036678
C       19.96791781      19.79262045      19.07361712
C       21.14540706      16.14844110      20.15497127
C       18.81744581      23.65155340      21.01611015
C       20.88208371      17.05705768      21.17605017
C       18.68882884      23.59232365      19.71793874
C       21.67502010      18.57571779      22.98755368
C       22.78410328      18.45820750      20.79018557
C       19.86969520      16.72050931      16.65714669
C       18.52539280      18.65199936      21.17646764
C       18.58457126      19.10068896      17.11301715
C       16.69838022      21.01126640      17.77686062
C       18.95146079      19.70343547      20.01585419
C       21.82902253      21.47600061      20.25065660
C       16.98253766      21.87492562      18.85860176
C       16.34669185      20.15800219      16.64893555
C       16.97389799      21.26582425      20.19274515
C       20.98770657      20.83776436      19.19563602
C       20.03472317      20.39616042      23.87642873
C       17.54513268      19.99451825      17.34450101
C       17.63418388      20.01948247      20.57700132
C       17.42719305      21.45131359      21.45651817
C       19.25981645      23.27417599      18.37462505
C       17.17869795      18.98338387      21.54594669
C       21.39259297      21.97952553      21.45519062
C       22.18828807      20.17344189      24.78517523
C       17.94696404      22.89348108      18.71467558
C       23.26877151      19.14392568      19.85004094
C       16.98026197      19.27418034      22.89197523
C       19.80046677      18.93958962      17.86964740
C       16.05883275      19.33981872      15.59650326
C       23.41534088      19.46157935      25.02621217
C       20.61209940      16.35426510      17.78726440
C       20.49565938      22.99794995      17.82154624
C       16.96405219      18.35969507      15.34164251
C       21.91217726      17.93371571      21.71787799
C       20.57551243      22.50760225      22.24897033
C       23.39377688      21.30503444      18.57775684
C       19.52033174      18.64459509      22.23816466
C       21.03568558      15.79033614      18.96976296
C       18.34431619      21.85123104      22.51207166
C       21.89471955      23.28445454      17.33576826
C       18.21231688      18.24416300      16.10692826
C       19.23026207      22.90391925      22.10450297
C       21.17478109      21.73641374      18.09076551
C       22.52379662      22.07361241      17.75787380
C       23.16796801      21.83087459      19.88997613
C       23.40991803      19.97372973      18.85316323
C       24.02790190      22.51800788      20.66241055
C       16.99729976      17.17964383      14.48873492
C       20.37987371      17.72347999      17.51222332
C       21.04492260      20.88442577      24.66440668
C       20.35746328      19.15299802      23.18263187
C       18.69048912      20.88042883      23.52444161
C       18.01057164      16.42179334      14.72905308
C       17.69320208      19.92617306      23.67967023
C       22.54955721      19.03112086      23.98707959
C       24.49161459      19.39905521      25.80461809
C       18.82085955      16.98874592      15.77820774
C       25.08649978      23.12792290      21.03533032
60
Lattice="40.0 0.0 0.0 0.0 40.0 0.0 0.0 0.0 40.0" Properties=species:S:1:pos:R:3 energy=-405.24394845962524 minima_index=2 pbc="T T T"
C       19.92245850      17.46016011      21.27889260
C       20.06876972      19.85085138      19.07702042
C       21.91310469      16.54463858      20.04837494
C       18.11770989      23.21808540      21.02222106
C       21.35861021      17.26949368      21.10427629
C       18.08274413      23.25012592      19.72094011
C       21.67470804      18.77411591      23.07284992
C       22.99436262      19.00311640      20.98960726
C       20.80999807      17.01900582      16.48560248
C       18.72484274      18.33037840      20.99854415
C       18.98698139      19.01330742      16.98408732
C       16.71134041      20.47466465      17.55817450
C       19.02587478      19.51312447      19.92333372
C       21.49748525      21.77965848      20.47437009
C       16.75070567      21.32802023      18.68208193
C       16.60445368      19.59607425      16.40850126
C       16.76980438      20.64907712      19.98447546
C       20.86025222      21.06158552      19.32665585
C       19.62968667      20.14449879      23.90942910
C       17.77562802      19.66780756      17.16604248
C       17.63282173      19.52850061      20.37153468
C       17.08330795      20.83467779      21.28999410
C       18.76248971      23.14301446      18.39648097
C       17.31442199      18.36358912      21.25202596
C       20.90712570      22.10457246      21.67403359
C       21.70449717      20.30343806      24.99659739
C       17.52904863      22.50462326      18.63448702
C       23.40993591      19.80873749      20.11429061
C       16.94624202      18.53168340      22.58388448
C       20.16470729      19.07662858      17.81214052
C       16.53847690      18.76503607      15.33115077
C       23.05165640      19.87711422      25.27630814
C       21.56627503      16.77117457      17.64076883
C       20.06789889      23.13344363      17.93981048
C       17.64813362      18.01353809      15.10758231
C       22.14068919      18.28384487      21.80012289
C       19.93279633      22.39800453      22.40977584
C       23.17317394      21.99918233      18.91586580
C       19.61920966      18.45001878      22.13592870
C       22.00332416      16.25402536      18.84356434
C       17.83373158      21.33017771      22.43625231
C       21.42160048      23.69329411      17.57764683
C       18.85541405      18.13859265      15.93331734
C       18.55608280      22.53288894      22.13602166
C       20.95466449      22.02442770      18.26224277
C       22.23968952      22.62341332      18.04859159
C       22.75877910      22.41108202      20.22331297
C       23.44765674      20.68689345      19.14868222
C       23.43335694      23.20602405      21.07406894
C       17.97420654      16.90370413      14.22635300
C       21.03299603      18.06220552      17.41388901
C       20.44743304      20.76487107      24.81735040
C       20.25354971      19.04386039      23.18342997
C       18.25425645      20.38682061      23.44608717
C       19.12229507      16.38074380      14.48521985
C       17.44453228      19.25747082      23.46761765
C       22.35811028      19.32688929      24.16773567
C       24.07406742      20.04367518      26.10956513
C       19.74612914      17.07055736      15.58584370
C       24.31569500      24.01977010      21.51494343
60
Lattice="40.0 0.0 0.0 0.0 40.0 0.0 0.0 0.0 40.0" Properties=species:S:1:pos:R:3 energy=-405.2539496421814 minima_index=3 pbc="T T T"
C       19.65912725      17.59873049      21.50455653
C       20.19979368      19.75213462      19.09216779
C       21.73318143      16.45930603      20.69290981
C       18.11636592      23.39578617      20.46231129
C       21.09384276      17.33908869      21.56235204
C       18.27431100      23.28379212      19.17329931
C       21.20994945      19.05332228      23.36755654
C       22.79322912      19.01815142      21.46828907
C       21.02972698      16.56738864      17.02057950
C       18.55994597      18.46719209      20.95911405
C       19.39376591      18.77369852      16.93319124
C       17.13555314      20.36868603      17.05911137
C       19.04668760      19.52393288      19.82879141
C       21.49749308      21.77605065      20.48243773
C       17.04238492      21.28907888      18.12566732
C       17.16821372      19.42934874      15.95560778
C       16.85443337      20.73082939      19.47031487
C       21.00320912      20.95453402      19.33413030
C       19.12523033      20.55818419      23.77038019
C       18.22025946      19.51653185      16.86773587
C       17.60798765      19.63391455      20.08358117
C       16.98645535      21.04318262      20.78198950
C       19.13849606      23.01433750      17.98209755
C       17.12807628      18.56641412      21.00216652
C       20.75290751      22.23757396      21.54490188
C       21.05811875      20.81139475      25.08061816
C       17.86004161      22.43669579      18.10006558
C       23.35780574      19.72138342      20.58671552
C       16.58753211      18.87340281      22.24735726
C       20.42488879      18.84081279      17.93889209
C       17.18762034      18.48229361      14.97648010
C       22.35860345      20.41044069      25.55397493
C       21.64944592      16.43468932      18.26808747
C       20.48760483      22.91936669      17.69963770
C       18.21108491      17.59294098      15.05525709
C       21.81977401      18.40921627      22.23085650
C       19.71154185      22.63445136      22.12579362
C       23.38700700      21.79423882      19.17289221
C       19.28276941      18.68096371      22.20328962
C       21.94258545      16.02030740      19.54838917
C       17.58342149      21.63411872      21.97011340
C       21.89542291      23.41522878      17.48653485
C       19.32580163      17.76673324      15.99634587
C       18.38430553      22.78599843      21.67277277
C       21.28326934      21.80851197      18.20979808
C       22.60370420      22.35664601      18.13004690
C       22.80935096      22.34387256      20.36375151
C       23.56024728      20.50178691      19.55991307
C       23.37603559      23.20807040      21.22547336
C       18.47117811      16.28576617      14.47652541
C       21.23413040      17.71275312      17.82196213
C       19.84545136      21.26707607      24.69720629
C       19.79649772      19.36813776      23.26044892
C       17.83234122      20.77856398      23.10435759
C       19.50279121      15.71060466      14.98685369
C       16.98737089      19.67619965      23.11373382
C       21.77387625      19.72882289      24.45940429
C       23.31620426      20.64625420      26.44615900
C       20.10002134      16.56067191      15.98526029
C       24.22152709      24.03039371      21.71979113
