60
Lattice="40.0 0.0 0.0 0.0 40.0 0.0 0.0 0.0 40.0" Properties=species:S:1:pos:R:3 energy=-405.2445993423462 minima_index=1 pbc="T T T"
C       19.94084815      17.40273439      21.12399923
C       20.21435805      19.92872759      19.04899231
C       22.09485686      16.63255754      20.12213349
C       17.80477261      23.11374003      20.94596761
C       21.39542161      17.28907830      21.13117434
C       17.91394407      23.19161619      19.64853197
C       21.37672408      18.69229113      23.19035847
C       22.89889726      19.12859293      21.28134181
C       21.38061640      17.22682156      16.48468878
C       18.74912199      18.22706492      20.71955309
C       19.44187494      19.13399365      16.79992797
C       17.04443587      20.45743834      17.16269976
C       19.10582422      19.48538808      19.75557364
C       21.30919918      21.83886288      20.74487764
C       16.89123173      21.24127329      18.32744624
C       17.11970156      19.63650790      15.96452555
C       16.79565100      20.49229523      19.58579277
C       20.87203960      21.17093480      19.47524816
C       19.16546670      19.92539976      23.80853404
C       18.18476012      19.72030692      16.86197736
C       17.66786708      19.40027765      20.02602432
C       16.92841405      20.62521061      20.92782537
C       18.77008797      23.20607325      18.42388013
C       17.31607788      18.16992661      20.78758125
C       20.55539083      22.06539014      21.87598568
C       21.05173947      20.06799639      25.20118564
C       17.57149082      22.47005182      18.45832534
C       23.36358155      19.99690768      20.49449666
C       16.77619708      18.24781437      22.06868596
C       20.50317533      19.21851590      17.77342371
C       17.22653255      18.84510024      14.86043657
C       22.33326828      19.63234091      25.67970606
C       22.00433469      16.96624384      17.70820237
C       20.12228730      23.30295046      18.14467073
C       18.36991801      18.11942320      14.76416001
C       22.02683481      18.30619746      21.96132567
C       19.49166918      22.28560624      22.50993362
C       23.15048485      22.26032626      19.43668546
C       19.47677909      18.33296663      21.97347493
C       22.32573506      16.40495045      18.92302907
C       17.48873964      21.10201491      22.18403463
C       21.47577035      23.95998367      18.00467857
C       19.47347582      18.28683809      15.71789778
C       18.15354126      22.36892508      22.05714336
C       21.02801624      22.22220931      18.51059445
C       22.29118902      22.89850667      18.50237144
C       22.55558994      22.54477732      20.70725301
C       23.45688262      20.94455876      19.60168238
C       23.05218201      23.29679811      21.70611174
C       18.82608063      17.01981701      13.92832300
C       21.45309287      18.24798033      17.45945004
C       19.82323459      20.51308241      24.85722411
C       19.94163872      18.90319794      23.11752877
C       17.84972797      20.12162915      23.18154525
C       19.96028603      16.54074627      14.30557787
C       17.12317514      18.94538962      23.04203020
C       21.86937344      19.17808350      24.41453499
C       23.16094103      19.71728784      26.71739073
C       20.43652532      17.25751066      15.46256943
C       23.84892552      24.07076783      22.33967550
60
Lattice="40.0 0.0 0.0 0.0 40.0 0.0 0.0 0.0 40.0" Properties=species:S:1:pos:R:3 energy=-405.24153327941895 minima_index=2 pbc="T T T"
C       19.90277302      17.81417505      21.74064431
C       20.41663247      19.71060604      19.15098277
C       22.29316302      17.13452945      21.42076272
C       17.44563211      22.93436110      19.63004707
C       21.32272992      17.90246042      22.06333462
C       17.84746711      22.70131535      18.41070420
C       20.72185273      19.73875538      23.63888301
C       22.62737188      19.89241431      22.04969782
C       22.30509945      16.63986247      17.70152843
C       18.75019240      18.33076832      20.92056091
C       20.20901673      18.31004342      17.08978862
C       17.68708058      19.35418081      16.63790575
C       19.21293235      19.32245328      19.71876202
C       21.00282958      22.11038693      20.42460355
C       17.24106898      20.38000588      17.50052913
C       18.06717648      18.25581101      15.76456252
C       16.92202512      19.96326455      18.87070246
C       20.90246631      21.08141244      19.34389029
C       18.34465936      20.77858234      23.46293753
C       18.92578099      18.72778308      16.75771256
C       17.76170588      19.13537486      19.74026193
C       16.75888695      20.44088677      20.12785624
C       18.94855115      22.49922552      17.41944449
C       17.34620009      18.10685528      20.73733370
C       20.00510220      22.50725131      21.28614816
C       19.85714004      21.52505466      25.09002584
C       17.81085444      21.66829533      17.42089098
C       23.19086059      20.57010538      21.14800889
C       16.53551087      18.42634676      21.82335182
C       21.03262767      18.76941683      18.18046868
C       18.44122103      17.19863251      14.99124100
C       21.03974884      21.39717232      25.89839157
C       22.69982542      16.82057538      19.03196634
C       20.31853044      22.68241279      17.36662903
C       19.62774973      16.62423958      15.31648638
C       21.66479752      19.16002858      22.71326673
C       18.81840860      22.73623424      21.63191462
C       23.06162920      22.39806319      19.43553551
C       19.18275243      18.84676956      22.20740200
C       22.80438150      16.65727152      20.39458040
C       16.99984919      21.28273815      21.29001806
C       21.62428126      23.44092209      17.29545827
C       20.51870256      17.20427903      16.33091576
C       17.59918305      22.54039572      20.94616572
C       21.20819102      21.84580261      18.16551166
C       22.39106391      22.65060587      18.20834221
C       22.17426695      22.93830913      20.42238372
C       23.41514760      21.23298765      20.04508706
C       22.38859111      23.99739908      21.22462983
C       20.29166972      15.37730205      14.97207444
C       22.10634012      17.89394426      18.32351759
C       18.69914752      21.69879259      24.41372201
C       19.32825205      19.72652579      23.23532113
C       17.19043062      20.64074254      22.56739223
C       21.35697000      15.17203972      15.66451262
C       16.59171692      19.38786129      22.61525435
C       20.88831966      20.58176586      24.74871364
C       21.67127783      21.82105303      26.98927264
C       21.56853067      16.26119757      16.58331686
C       22.93363306      25.05195201      21.69864558
