5
Lattice="27.25 0.0 0.0 0.0 27.25 0.0 0.0 0.0 27.25" Properties=species:S:1:pos:R:3 energy=-41.250196768161516 minima_index=1 pbc="T T T"
Si      12.64608382      14.88536154      14.18101365
Si      15.60370692      12.62832637      12.93139179
Si      15.02727106      14.49197277      14.02151240
Si      11.34770610      13.31224060      13.27106193
Si      13.50023210      12.80709872      13.72002023
5
Lattice="27.25 0.0 0.0 0.0 27.25 0.0 0.0 0.0 27.25" Properties=species:S:1:pos:R:3 energy=-41.25021843731722 minima_index=2 pbc="T T T"
Si      12.39127359      14.72298972      13.99792343
Si      15.80478079      12.93831515      13.22335430
Si      14.81481690      14.73411402      14.11392825
Si      11.49159743      12.92079649      13.03129558
Si      13.62253129      12.80878462      13.75849844
5
Lattice="27.25 0.0 0.0 0.0 27.25 0.0 0.0 0.0 27.25" Properties=species:S:1:pos:R:3 energy=-41.25038185153911 minima_index=3 pbc="T T T"
Si      12.48622222      14.72217081      14.22482174
Si      15.74700061      12.85346802      13.08681739
Si      14.89289823      14.50273923      14.32735903
Si      11.44825218      13.24832333      12.90540488
Si      13.55062676      12.79829862      13.58059696
5
Lattice="27.25 0.0 0.0 0.0 27.25 0.0 0.0 0.0 27.25" Properties=species:S:1:pos:R:3 energy=-41.25014824046991 minima_index=4 pbc="T T T"
Si      13.33580171      13.51416556      11.95729995
Si      13.06002384      13.82909353      15.86675496
Si      11.98638109      13.35158697      13.96788139
Si      15.46285888      14.11255368      12.29288626
Si      14.27993448      13.31760027      14.04017744
5
Lattice="27.25 0.0 0.0 0.0 27.25 0.0 0.0 0.0 27.25" Properties=species:S:1:pos:R:3 energy=-41.25022569000767 minima_index=5 pbc="T T T"
Si      13.29498928      13.41363367      11.97793091
Si      13.12939465      14.08102581      15.84986205
Si      11.97031076      13.62520675      13.99123291
Si      15.49421186      13.73018633      12.24638713
Si      14.23609346      13.27494743      14.05958700
5
Lattice="27.25 0.0 0.0 0.0 27.25 0.0 0.0 0.0 27.25" Properties=species:S:1:pos:R:3 energy=-41.25038785836291 minima_index=6 pbc="T T T"
Si      14.21231093      12.21068466      12.89558577
Si      12.94286385      15.84542873      13.70955459
Si      13.34729355      14.33641294      12.11292944
Si      14.48053365      12.05445749      15.10793065
Si      13.14199801      13.67801618      14.29899955
5
Lattice="27.25 0.0 0.0 0.0 27.25 0.0 0.0 0.0 27.25" Properties=species:S:1:pos:R:3 energy=-41.25039165423696 minima_index=7 pbc="T T T"
Si      14.46526615      13.08536454      12.25434692
Si      12.37488735      15.11337074      14.90090095
Si      12.95371885      14.90881697      12.75301865
Si      15.08330645      11.86155752      14.01850274
Si      13.24782120      13.15589022      14.19823073
5
Lattice="27.25 0.0 0.0 0.0 27.25 0.0 0.0 0.0 27.25" Properties=species:S:1:pos:R:3 energy=-41.24984075663356 minima_index=8 pbc="T T T"
Si      12.36110044      14.64697649      14.10189689
Si      15.78109674      12.75421518      13.65078797
Si      14.57137134      14.12007584      14.93790396
Si      11.85248271      13.74039174      12.12726769
Si      13.55894878      12.86334076      13.30714348
5
Lattice="27.25 0.0 0.0 0.0 27.25 0.0 0.0 0.0 27.25" Properties=species:S:1:pos:R:3 energy=-41.24996583419325 minima_index=9 pbc="T T T"
Si      12.28255285      14.60958711      13.96095846
Si      15.82656219      12.90474473      13.78493999
Si      14.48785442      14.28176248      14.93329337
Si      11.91619682      13.49324654      12.05920271
Si      13.61183372      12.83565914      13.38660547
5
Lattice="27.25 0.0 0.0 0.0 27.25 0.0 0.0 0.0 27.25" Properties=species:S:1:pos:R:3 energy=-41.25017225313746 minima_index=10 pbc="T T T"
Si      12.31754537      14.68585258      13.48249713
Si      15.78819166      12.99074967      14.19692036
Si      14.42044804      14.69355849      14.66502055
Si      11.99666924      12.96047982      12.10202109
Si      13.60214569      12.79435944      13.67854088
5
Lattice="27.25 0.0 0.0 0.0 27.25 0.0 0.0 0.0 27.25" Properties=species:S:1:pos:R:3 energy=-41.25023194608339 minima_index=11 pbc="T T T"
Si      12.16567017      14.39248370      13.24965272
Si      15.89293975      13.50369438      14.10773923
Si      14.33475409      15.10395174      14.03320725
Si      12.00806518      12.22975315      12.71492408
Si      13.72357080      12.89511702      14.01947672
5
Lattice="27.25 0.0 0.0 0.0 27.25 0.0 0.0 0.0 27.25" Properties=species:S:1:pos:R:3 energy=-41.25033419945813 minima_index=12 pbc="T T T"
Si      12.66165612      14.18880087      12.35542670
Si      14.92927893      13.80291620      15.53989231
Si      13.48925448      15.10620063      14.43124710
Si      13.43419555      12.15793309      11.83245574
Si      13.61061491      12.86914921      13.96597815
5
Lattice="27.25 0.0 0.0 0.0 27.25 0.0 0.0 0.0 27.25" Properties=species:S:1:pos:R:3 energy=-41.25034978390941 minima_index=13 pbc="T T T"
Si      12.50573896      12.42082328      13.20873107
Si      14.35966828      15.79400747      14.03069487
Si      12.38820719      14.76927160      13.78380304
Si      14.57473954      11.60014580      12.99594561
Si      14.29664604      13.54075185      14.10582540
5
Lattice="27.25 0.0 0.0 0.0 27.25 0.0 0.0 0.0 27.25" Properties=species:S:1:pos:R:3 energy=-41.25039892295012 minima_index=14 pbc="T T T"
Si      12.75627449      12.24167315      13.18040995
Si      13.90606313      15.84866350      14.23191750
Si      12.20110724      14.41545604      14.08856756
Si      14.89946217      11.96854579      12.61213083
Si      14.36209298      13.65066152      14.01197417
5
Lattice="27.25 0.0 0.0 0.0 27.25 0.0 0.0 0.0 27.25" Properties=species:S:1:pos:R:3 energy=-41.08311593297272 minima_index=15 pbc="T T T"
Si      14.60018020      14.85827133      15.21059672
Si      11.91065741      13.70978593      12.19583262
Si      12.15697666      11.94626923      13.44961313
Si      15.83354148      13.98398817      13.64332549
Si      13.62364426      13.62668535      13.62563204
5
Lattice="27.25 0.0 0.0 0.0 27.25 0.0 0.0 0.0 27.25" Properties=species:S:1:pos:R:3 energy=-41.083136729147164 minima_index=16 pbc="T T T"
Si      11.90446270      12.66697287      14.69196151
Si      15.35781036      14.97166450      14.04840042
Si      15.68899344      13.13795082      12.92257775
Si      11.54686193      13.72733364      12.82511820
Si      13.62687157      13.62107817      13.63694213
5
Lattice="27.25 0.0 0.0 0.0 27.25 0.0 0.0 0.0 27.25" Properties=species:S:1:pos:R:3 energy=-41.25041381090727 minima_index=17 pbc="T T T"
Si      12.23923814      12.65706595      13.54277990
Si      14.82398199      15.61589463      13.67999972
Si      12.68699275      15.00463047      13.92388015
Si      14.02179640      11.41908596      13.00566383
Si      14.35299071      13.42832298      13.97267640
5
Lattice="27.25 0.0 0.0 0.0 27.25 0.0 0.0 0.0 27.25" Properties=species:S:1:pos:R:3 energy=-41.25043476670289 minima_index=18 pbc="T T T"
Si      13.03587141      14.79253181      14.70099348
Si      15.20217747      12.59851385      12.25984717
Si      15.21459684      14.15285442      13.86602488
Si      11.30853078      13.74204337      13.75040743
Si      13.36382351      12.83905656      13.54772704
5
Lattice="27.25 0.0 0.0 0.0 27.25 0.0 0.0 0.0 27.25" Properties=species:S:1:pos:R:3 energy=-41.249310322071224 minima_index=19 pbc="T T T"
Si      14.37568249      12.79261282      12.36120134
Si      12.67927875      13.87096974      15.74054123
Si      13.89652836      12.33680059      14.67419048
Si      13.50475367      14.68560059      11.55473834
Si      13.66875673      14.43901626      13.79432861
5
Lattice="27.25 0.0 0.0 0.0 27.25 0.0 0.0 0.0 27.25" Properties=species:S:1:pos:R:3 energy=-41.25044665147463 minima_index=20 pbc="T T T"
Si      14.21981998      12.77502721      12.28875991
Si      12.59857007      13.87903065      15.69354482
Si      13.46218173      12.19157097      14.50986759
Si      13.95548099      14.91888890      11.72437808
Si      13.88894724      14.36048226      13.90844960
5
Lattice="27.25 0.0 0.0 0.0 27.25 0.0 0.0 0.0 27.25" Properties=species:S:1:pos:R:3 energy=-41.08208363049935 minima_index=21 pbc="T T T"
Si      12.16090737      11.98936495      14.04087707
Si      15.56722022      13.98776021      12.58307157
Si      15.33416781      14.64285326      14.64538602
Si      11.43982326      13.87472348      13.22820159
Si      13.62288133      13.63029809      13.62746376
5
Lattice="27.25 0.0 0.0 0.0 27.25 0.0 0.0 0.0 27.25" Properties=species:S:1:pos:R:3 energy=-41.25037251863318 minima_index=22 pbc="T T T"
Si      13.65884488      15.24928608      14.09354217
Si      13.94709051      11.82047323      12.19778842
Si      14.60163336      13.95446449      12.28228286
Si      12.25708711      14.14234950      15.42980619
Si      13.66034414      12.95842670      14.12158036
5
Lattice="27.25 0.0 0.0 0.0 27.25 0.0 0.0 0.0 27.25" Properties=species:S:1:pos:R:3 energy=-41.08313157924198 minima_index=23 pbc="T T T"
Si      12.91375544      14.67319918      15.46290391
Si      13.01993819      11.96024506      12.25440497
Si      13.58587025      13.88615523      11.41131874
Si      14.97937485      13.99109559      15.36747914
Si      13.62606128      13.61430494      13.62889324
5
Lattice="27.25 0.0 0.0 0.0 27.25 0.0 0.0 0.0 27.25" Properties=species:S:1:pos:R:3 energy=-41.25041400000576 minima_index=24 pbc="T T T"
Si      14.42501268      14.75504924      12.65019390
Si      12.01187499      12.03774577      14.14504118
Si      12.77148825      13.02491109      12.29086671
Si      14.96595881      15.12381133      14.78925836
Si      13.95066528      13.18348256      14.24963985
5
Lattice="27.25 0.0 0.0 0.0 27.25 0.0 0.0 0.0 27.25" Properties=species:S:1:pos:R:3 energy=-42.1799124025984 minima_index=25 pbc="T T T"
Si      13.70954507      13.87080063      12.30776764
Si      14.67555086      15.02265393      14.18987398
Si      12.29058721      14.74291069      14.05951436
Si      13.75603620      11.59057297      12.81807678
Si      13.69328067      12.89806179      14.74976724
5
Lattice="27.25 0.0 0.0 0.0 27.25 0.0 0.0 0.0 27.25" Properties=species:S:1:pos:R:3 energy=-43.72147265688566 minima_index=26 pbc="T T T"
Si      14.37384656      13.85310766      12.43353572
Si      14.61907605      15.01523727      14.51427411
Si      12.41584474      14.34476049      13.85167695
Si      12.63189931      12.23217511      12.73792094
Si      14.08433335      12.67971947      14.58759228
5
Lattice="27.25 0.0 0.0 0.0 27.25 0.0 0.0 0.0 27.25" Properties=species:S:1:pos:R:3 energy=-43.72149567259643 minima_index=27 pbc="T T T"
Si      14.48338679      13.94534626      12.53385050
Si      14.18547193      15.22823160      14.53451366
Si      12.27831828      14.08941754      13.63231479
Si      13.06404714      12.02338526      12.71436580
Si      14.11377586      12.83861933      14.70995524
5
Lattice="27.25 0.0 0.0 0.0 27.25 0.0 0.0 0.0 27.25" Properties=species:S:1:pos:R:3 energy=-43.7214970487039 minima_index=28 pbc="T T T"
Si      14.31550097      13.23052267      12.44185144
Si      14.42487639      15.37402188      13.50852031
Si      12.32977733      14.21112837      13.53369357
Si      12.82449112      11.87536399      13.73943536
Si      14.23035419      13.43396309      14.90149932
5
Lattice="27.25 0.0 0.0 0.0 27.25 0.0 0.0 0.0 27.25" Properties=species:S:1:pos:R:3 energy=-43.721504485649675 minima_index=29 pbc="T T T"
Si      14.24835262      12.74107521      12.69733011
Si      14.55116700      15.11331424      12.82990930
Si      12.37634984      14.23354033      13.30524621
Si      12.69615983      12.13611685      14.41783705
Si      14.25297071      13.90095336      14.87467733
5
Lattice="27.25 0.0 0.0 0.0 27.25 0.0 0.0 0.0 27.25" Properties=species:S:1:pos:R:3 energy=-43.721506511240754 minima_index=30 pbc="T T T"
Si      14.52024901      13.51986049      12.52082689
Si      13.99986093      15.51039093      13.74840368
Si      12.24803647      13.91424815      13.40027476
Si      13.24877089      11.73834588      13.50259997
Si      14.10808270      13.44215454      14.95289469
5
Lattice="27.25 0.0 0.0 0.0 27.25 0.0 0.0 0.0 27.25" Properties=species:S:1:pos:R:3 energy=-43.721454074553506 minima_index=31 pbc="T T T"
Si      13.73086105      13.26405758      14.99976171
Si      13.83489817      11.77876986      13.12636470
Si      12.34708628      13.65188417      12.99159489
Si      13.41794216      15.47107327      14.12571826
Si      14.79421234      13.95921512      12.88156045
5
Lattice="27.25 0.0 0.0 0.0 27.25 0.0 0.0 0.0 27.25" Properties=species:S:1:pos:R:3 energy=-43.721456047917435 minima_index=32 pbc="T T T"
Si      13.61089840      12.75819250      14.75703584
Si      13.57600445      12.09419427      12.45487589
Si      12.39689949      14.09118915      13.06965234
Si      13.67687447      15.15445790      14.79703591
Si      14.86432319      14.02696618      13.04640002
5
Lattice="27.25 0.0 0.0 0.0 27.25 0.0 0.0 0.0 27.25" Properties=species:S:1:pos:R:3 energy=-43.72146413308636 minima_index=33 pbc="T T T"
Si      13.54820048      13.12028825      14.95497252
Si      13.61999848      11.82190600      12.94195373
Si      12.43195853      13.90431161      12.89743833
Si      13.62881364      15.42714321      14.31004578
Si      14.89602886      13.85135093      13.02058964
5
Lattice="27.25 0.0 0.0 0.0 27.25 0.0 0.0 0.0 27.25" Properties=species:S:1:pos:R:3 energy=-43.7215168634503 minima_index=34 pbc="T T T"
Si      13.57871795      13.08007796      14.94030689
Si      13.90518339      11.86034594      12.90362959
Si      12.42828504      13.74766379      12.86128541
Si      13.34340822      15.38791080      14.34621111
Si      14.86940539      14.04900152      13.07356700
5
Lattice="27.25 0.0 0.0 0.0 27.25 0.0 0.0 0.0 27.25" Properties=species:S:1:pos:R:3 energy=-43.72144310403268 minima_index=35 pbc="T T T"
Si      14.47625784      13.12637087      14.65496878
Si      14.38271468      15.38112436      13.84667558
Si      14.06529361      13.60522760      12.26920601
Si      12.86215305      11.87093579      13.40545674
Si      12.33858083      14.14134138      13.94869289
5
Lattice="27.25 0.0 0.0 0.0 27.25 0.0 0.0 0.0 27.25" Properties=species:S:1:pos:R:3 energy=-43.72148960299671 minima_index=36 pbc="T T T"
Si      14.56295729      13.28040407      14.64204516
Si      14.35812494      15.40517818      13.55145938
Si      13.95558944      13.43293904      12.25247963
Si      12.89375273      11.84306078      13.69713001
Si      12.35457560      14.16341794      13.98188582
5
Lattice="27.25 0.0 0.0 0.0 27.25 0.0 0.0 0.0 27.25" Properties=species:S:1:pos:R:3 energy=-43.72152059602184 minima_index=37 pbc="T T T"
Si      14.27240229      13.28572177      14.85005908
Si      14.76414976      15.16839026      13.45044044
Si      14.12235879      13.11761378      12.38963209
Si      12.48716283      12.08095651      13.80006610
Si      12.47892634      14.47231767      13.63480230
5
Lattice="27.25 0.0 0.0 0.0 27.25 0.0 0.0 0.0 27.25" Properties=species:S:1:pos:R:3 energy=-43.72152427415291 minima_index=38 pbc="T T T"
Si      13.91149046      14.94160272      13.16056570
Si      12.27991292      13.43795843      12.25948322
Si      14.32760155      12.50794823      13.08622341
Si      14.97113157      13.81487939      14.98891402
Si      12.63486350      13.42261124      14.62981365
5
Lattice="27.25 0.0 0.0 0.0 27.25 0.0 0.0 0.0 27.25" Properties=species:S:1:pos:R:3 energy=-43.721514340591625 minima_index=39 pbc="T T T"
Si      13.55653451      15.47905342      14.14279290
Si      13.96031844      14.00985984      12.29286672
Si      14.65524748      13.39571106      14.58182916
Si      13.69348590      11.77081881      13.10801385
Si      12.25941367      13.46955687      13.99949736
5
Lattice="27.25 0.0 0.0 0.0 27.25 0.0 0.0 0.0 27.25" Properties=species:S:1:pos:R:3 energy=-43.72152036564147 minima_index=40 pbc="T T T"
Si      12.74867579      15.26422535      13.12056412
Si      13.53769851      13.16449870      12.27901451
Si      14.76358944      14.36718472      14.05501657
Si      14.50382273      11.98543065      14.12756746
Si      12.57121354      13.34366058      14.54283735
5
Lattice="27.25 0.0 0.0 0.0 27.25 0.0 0.0 0.0 27.25" Properties=species:S:1:pos:R:3 energy=-43.72145685731469 minima_index=41 pbc="T T T"
Si      14.92221674      14.20165642      13.77304179
Si      13.25596403      14.82475870      12.16336983
Si      13.99101682      12.42291885      15.08444958
Si      13.43338294      12.51052018      12.75720752
Si      12.52241947      14.16514585      14.34693128
5
Lattice="27.25 0.0 0.0 0.0 27.25 0.0 0.0 0.0 27.25" Properties=species:S:1:pos:R:3 energy=-43.72152269995699 minima_index=42 pbc="T T T"
Si      14.83862229      14.36928748      13.69351441
Si      13.04427326      14.70992161      12.14181789
Si      14.20697088      12.54117388      15.10827179
Si      13.54767140      12.46215173      12.80499982
Si      12.48746218      14.04246529      14.37639609
5
Lattice="27.25 0.0 0.0 0.0 27.25 0.0 0.0 0.0 27.25" Properties=species:S:1:pos:R:3 energy=-43.721353394805334 minima_index=43 pbc="T T T"
Si      12.37402414      13.97533760      13.03463647
Si      12.82548753      12.04957482      14.38731523
Si      14.43018842      15.19730585      12.86072200
Si      14.54974266      12.80836346      12.91119574
Si      13.94555726      14.09441827      14.93113057
5
Lattice="27.25 0.0 0.0 0.0 27.25 0.0 0.0 0.0 27.25" Properties=species:S:1:pos:R:3 energy=-43.72149741017848 minima_index=44 pbc="T T T"
Si      12.35808672      13.94560418      13.05454489
Si      12.81443805      12.18056216      14.60976758
Si      14.43422760      15.06840494      12.63772999
Si      14.48909912      12.69606332      12.97451862
Si      14.02914850      14.23436541      14.84843891
5
Lattice="27.25 0.0 0.0 0.0 27.25 0.0 0.0 0.0 27.25" Properties=species:S:1:pos:R:3 energy=-42.18543691049898 minima_index=45 pbc="T T T"
Si      13.11877691      12.18774623      12.66997512
Si      12.89581637      12.76745831      14.99914743
Si      14.61923711      15.48802624      13.32205291
Si      14.94190191      13.24575212      13.82829161
Si      12.54926770      14.43601710      13.30553293
5
Lattice="27.25 0.0 0.0 0.0 27.25 0.0 0.0 0.0 27.25" Properties=species:S:1:pos:R:3 energy=-43.72150899327377 minima_index=46 pbc="T T T"
Si      12.37675986      13.14589222      13.12985032
Si      13.88918943      11.96257978      14.56287082
Si      13.35986446      15.28572099      12.68470225
Si      14.82284617      13.39854728      12.88569236
Si      13.67634009      14.33225974      14.86188426
5
Lattice="27.25 0.0 0.0 0.0 27.25 0.0 0.0 0.0 27.25" Properties=species:S:1:pos:R:3 energy=-43.72151032732771 minima_index=47 pbc="T T T"
Si      12.57482576      13.41451807      12.68634983
Si      13.20539276      11.94570478      14.47070233
Si      14.04366290      15.30421773      12.77842472
Si      14.94093052      13.15458474      13.34113427
Si      13.36018806      14.30597467      14.84838885
5
Lattice="27.25 0.0 0.0 0.0 27.25 0.0 0.0 0.0 27.25" Properties=species:S:1:pos:R:3 energy=-43.72151540057157 minima_index=48 pbc="T T T"
Si      13.06654490      12.59636787      12.81152684
Si      15.38861226      13.14184719      13.02273767
Si      11.86091653      14.10628804      14.22796994
Si      13.80032570      14.93719944      13.09368261
Si      14.00860062      13.34329746      14.96908294
5
Lattice="27.25 0.0 0.0 0.0 27.25 0.0 0.0 0.0 27.25" Properties=species:S:1:pos:R:3 energy=-43.72152705577753 minima_index=49 pbc="T T T"
Si      12.80020537      12.72264106      12.89185133
Si      15.10183055      12.39789897      13.47398014
Si      12.14948365      14.85330551      13.77254519
Si      14.38210864      14.61919492      12.94026517
Si      13.69137179      13.53195954      15.04635817
5
Lattice="27.25 0.0 0.0 0.0 27.25 0.0 0.0 0.0 27.25" Properties=species:S:1:pos:R:3 energy=-43.72148224982845 minima_index=50 pbc="T T T"
Si      14.07441382      13.37448906      14.95499428
Si      13.18250343      15.43360652      14.11425619
Si      14.06586932      11.81694080      13.13163160
Si      14.53786649      14.11423428      12.64653298
Si      12.26434695      13.38572934      13.27758495
5
Lattice="27.25 0.0 0.0 0.0 27.25 0.0 0.0 0.0 27.25" Properties=species:S:1:pos:R:3 energy=-43.72151427971711 minima_index=51 pbc="T T T"
Si      14.49648161      14.37493056      12.78249857
Si      15.12221173      13.13216438      14.73182693
Si      13.37521347      12.24990229      13.34889999
Si      12.12772426      14.11810925      12.51652102
Si      13.00336893      14.24989353      14.74525350
5
Lattice="27.25 0.0 0.0 0.0 27.25 0.0 0.0 0.0 27.25" Properties=species:S:1:pos:R:3 energy=-43.721535301849386 minima_index=52 pbc="T T T"
Si      13.90622676      14.64710713      12.67199895
Si      15.24788471      12.71448707      13.12880054
Si      12.86714322      12.48128488      13.23988387
Si      12.00112237      14.53567159      14.12197240
Si      14.10262294      13.74644934      14.96234423
5
Lattice="27.25 0.0 0.0 0.0 27.25 0.0 0.0 0.0 27.25" Properties=species:S:1:pos:R:3 energy=-43.72151672009824 minima_index=53 pbc="T T T"
Si      14.97267050      14.09156276      13.65323712
Si      13.23338062      14.84414352      12.18572203
Si      12.63441204      14.25880462      14.43172377
Si      14.01642110      12.40633674      15.06343667
Si      13.26811574      12.52415235      12.79088041
5
Lattice="27.25 0.0 0.0 0.0 27.25 0.0 0.0 0.0 27.25" Properties=species:S:1:pos:R:3 energy=-43.72143126468863 minima_index=54 pbc="T T T"
Si      13.28614815      13.03565122      15.42809526
Si      13.96145343      14.20849530      11.82052597
Si      12.86857346      12.52536591      13.12714348
Si      15.02746223      13.48938064      13.84205799
Si      12.98136273      14.86610693      13.90717730
5
Lattice="27.25 0.0 0.0 0.0 27.25 0.0 0.0 0.0 27.25" Properties=species:S:1:pos:R:3 energy=-43.72146631162464 minima_index=55 pbc="T T T"
Si      13.48149129      14.08903060      15.48904105
Si      13.76993249      13.15995532      11.76151242
Si      12.42538193      12.86040549      13.72060040
Si      14.88749320      13.00980992      13.87751848
Si      13.56070109      15.00579867      13.27632765
5
Lattice="27.25 0.0 0.0 0.0 27.25 0.0 0.0 0.0 27.25" Properties=species:S:1:pos:R:3 energy=-43.72152509289841 minima_index=56 pbc="T T T"
Si      13.48092694      14.40083775      15.38217255
Si      13.76953756      12.84724202      11.86883119
Si      12.37202845      12.97006391      13.81053031
Si      14.83451441      12.97694253      14.01233131
Si      13.66799265      14.92991379      13.05113464
5
Lattice="27.25 0.0 0.0 0.0 27.25 0.0 0.0 0.0 27.25" Properties=species:S:1:pos:R:3 energy=-43.721477874052326 minima_index=57 pbc="T T T"
Si      15.11430943      14.28566766      12.59758446
Si      12.13803858      12.96499786      14.65629931
Si      12.72323874      14.31586047      12.76480237
Si      14.14025385      14.27141338      14.78477070
Si      14.00915941      12.28706064      13.32154317
5
Lattice="27.25 0.0 0.0 0.0 27.25 0.0 0.0 0.0 27.25" Properties=species:S:1:pos:R:3 energy=-43.72149870188696 minima_index=58 pbc="T T T"
Si      14.09332261      14.92311520      12.28209400
Si      13.15834460      12.32411666      14.96642159
Si      12.32959557      13.49122195      13.04354817
Si      13.84854390      14.59755851      14.64402580
Si      14.69519332      12.78898767      13.18891045
5
Lattice="27.25 0.0 0.0 0.0 27.25 0.0 0.0 0.0 27.25" Properties=species:S:1:pos:R:3 energy=-43.72152655680241 minima_index=59 pbc="T T T"
Si      13.66487743      14.76771855      12.07498916
Si      13.58597256      12.48038193      15.17422225
Si      12.22027697      13.44635177      13.45751909
Si      14.11470507      14.69708725      14.42685891
Si      14.53916796      12.73346050      12.99141059
5
Lattice="27.25 0.0 0.0 0.0 27.25 0.0 0.0 0.0 27.25" Properties=species:S:1:pos:R:3 energy=-43.72146544748146 minima_index=60 pbc="T T T"
Si      14.06486208      12.78520079      15.30232830
Si      13.18899258      14.46330921      11.94674929
Si      14.60080788      14.63177358      13.87531416
Si      12.28272558      13.81231022      14.06759592
Si      13.98761187      12.43240621      12.93301233
5
Lattice="27.25 0.0 0.0 0.0 27.25 0.0 0.0 0.0 27.25" Properties=species:S:1:pos:R:3 energy=-43.72148539458421 minima_index=61 pbc="T T T"
Si      14.29375925      12.76416010      15.21223270
Si      12.95409212      14.48912195      12.04062157
Si      14.56781657      14.67942652      13.79989077
Si      12.33312104      13.71282682      14.21966745
Si      13.97621102      12.47946461      12.85258750
5
Lattice="27.25 0.0 0.0 0.0 27.25 0.0 0.0 0.0 27.25" Properties=species:S:1:pos:R:3 energy=-43.72153943383521 minima_index=62 pbc="T T T"
Si      13.33878093      11.93255736      12.75231407
Si      13.91070839      15.31776780      14.49658335
Si      14.56226843      13.01162850      14.50648001
Si      12.24486068      13.67620320      13.97726810
Si      14.06838157      14.18684314      12.39235447
5
Lattice="27.25 0.0 0.0 0.0 27.25 0.0 0.0 0.0 27.25" Properties=species:S:1:pos:R:3 energy=-43.721541988640304 minima_index=63 pbc="T T T"
Si      12.09345019      12.49811438      13.92779622
Si      15.15652283      14.75180686      13.32256629
Si      14.38516021      12.83660276      14.53611300
Si      12.88968425      14.75083502      14.09820144
Si      13.60018251      13.28764098      12.24032305
5
Lattice="27.25 0.0 0.0 0.0 27.25 0.0 0.0 0.0 27.25" Properties=species:S:1:pos:R:3 energy=-43.72154324134088 minima_index=64 pbc="T T T"
Si      14.11900498      13.55062131      11.76465656
Si      13.13010674      13.69749727      15.48437333
Si      13.23718445      12.25430099      13.57646115
Si      12.67529481      14.64671879      13.33197834
Si      14.96340902      13.97586164      13.96753062
5
Lattice="27.25 0.0 0.0 0.0 27.25 0.0 0.0 0.0 27.25" Properties=species:S:1:pos:R:3 energy=-43.721305478811836 minima_index=65 pbc="T T T"
Si      12.92898141      14.38895541      15.24790631
Si      14.32457496      12.86537582      12.00146791
Si      12.64355535      12.59262854      13.68525929
Si      14.88963791      13.43962162      14.25867016
Si      13.33825037      14.83841861      12.93169634
5
Lattice="27.25 0.0 0.0 0.0 27.25 0.0 0.0 0.0 27.25" Properties=species:S:1:pos:R:3 energy=-43.72132011995449 minima_index=66 pbc="T T T"
Si      13.07647015      14.62243116      15.17870027
Si      14.16571627      12.63120668      12.06695816
Si      12.75303622      12.56156935      13.99991714
Si      14.97233607      13.63157799      14.09286557
Si      13.15744129      14.67821483      12.78655886
5
Lattice="27.25 0.0 0.0 0.0 27.25 0.0 0.0 0.0 27.25" Properties=species:S:1:pos:R:3 energy=-43.721429757378715 minima_index=67 pbc="T T T"
Si      12.86378312      15.02533107      14.70610080
Si      14.38686861      12.22234249      12.54861781
Si      12.76270271      12.67782400      14.24717609
Si      14.90829664      13.89669107      14.17959635
Si      13.20334892      14.30281137      12.44350896
5
Lattice="27.25 0.0 0.0 0.0 27.25 0.0 0.0 0.0 27.25" Properties=species:S:1:pos:R:3 energy=-43.72153226505669 minima_index=68 pbc="T T T"
Si      13.16728638      15.16783316      14.68292691
Si      14.08624454      12.08310653      12.56692024
Si      12.62035476      12.86640926      14.29478585
Si      14.95166725      13.66494504      14.14293303
Si      13.29944707      14.34270601      12.43743397
5
Lattice="27.25 0.0 0.0 0.0 27.25 0.0 0.0 0.0 27.25" Properties=species:S:1:pos:R:3 energy=-43.72154512776737 minima_index=69 pbc="T T T"
Si      12.50831716      14.73305125      14.73652773
Si      14.74245353      12.51592598      12.51502382
Si      12.53861482      13.43570026      12.72175897
Si      13.81254405      12.72333582      14.71303519
Si      14.52307044      14.71698668      13.43865429
5
Lattice="27.25 0.0 0.0 0.0 27.25 0.0 0.0 0.0 27.25" Properties=species:S:1:pos:R:3 energy=-43.72145862855636 minima_index=70 pbc="T T T"
Si      15.41909769      13.47087368      12.93851772
Si      11.83163819      13.77783128      14.31142541
Si      13.35644748      14.67024381      12.69157022
Si      14.14573031      13.93892796      14.91550511
Si      13.37208633      12.26712327      13.26798153
5
Lattice="27.25 0.0 0.0 0.0 27.25 0.0 0.0 0.0 27.25" Properties=species:S:1:pos:R:3 energy=-43.72149615470568 minima_index=71 pbc="T T T"
Si      15.30568941      13.36093450      12.72125440
Si      11.94612195      13.89154914      14.53119607
Si      13.37200479      14.77318662      12.81986224
Si      14.31409423      13.75783018      14.86590750
Si      13.18708962      12.34149956      13.18677979
5
Lattice="27.25 0.0 0.0 0.0 27.25 0.0 0.0 0.0 27.25" Properties=species:S:1:pos:R:3 energy=-43.72153048494512 minima_index=72 pbc="T T T"
Si      15.25267998      13.36693949      12.62686303
Si      11.99842582      13.88536190      14.62426511
Si      13.47207478      14.91583016      13.04154171
Si      14.34902789      13.47241419      14.84304664
Si      13.05279153      12.48445427      12.98928352
5
Lattice="27.25 0.0 0.0 0.0 27.25 0.0 0.0 0.0 27.25" Properties=species:S:1:pos:R:3 energy=-43.72139295885644 minima_index=73 pbc="T T T"
Si      12.10540963      13.18575204      14.72333487
Si      15.14465140      14.06333276      12.52539273
Si      13.35873732      12.49040145      12.80708515
Si      14.47846303      13.50005603      14.75915573
Si      13.03773863      14.88545772      13.31003153
5
Lattice="27.25 0.0 0.0 0.0 27.25 0.0 0.0 0.0 27.25" Properties=species:S:1:pos:R:3 energy=-43.721495807336055 minima_index=74 pbc="T T T"