5
Lattice="27.25 0.0 0.0 0.0 27.25 0.0 0.0 0.0 27.25" Properties=species:S:1:pos:R:3 energy=-41.25009594126729 minima_index=1 pbc="T T T"
Si      12.65951789      13.66733028      15.00995490
Si      15.47350413      14.14405190      12.31177174
Si      14.93964400      14.25966140      14.48160086
Si      11.40368852      13.02422389      13.27929298
Si      13.64864545      13.02973252      13.04237952
5
Lattice="27.25 0.0 0.0 0.0 27.25 0.0 0.0 0.0 27.25" Properties=species:S:1:pos:R:3 energy=-41.250417278749524 minima_index=2 pbc="T T T"
Si      12.45453650      13.63099734      14.84554427
Si      15.71131117      14.03029973      12.68556555
Si      14.84185706      13.99179435      14.74210794
Si      11.43993264      13.37148081      12.86970770
Si      13.67736263      13.10042777      12.98207454
5
Lattice="27.25 0.0 0.0 0.0 27.25 0.0 0.0 0.0 27.25" Properties=species:S:1:pos:R:3 energy=-41.250476843353894 minima_index=3 pbc="T T T"
Si      14.02374942      12.19369114      12.81467613
Si      13.75372972      15.89255426      14.11706872
Si      14.45452897      14.55023195      12.47509819
Si      12.99095636      11.68012515      14.72782023
Si      12.90203553      13.80839750      13.99033672
5
Lattice="27.25 0.0 0.0 0.0 27.25 0.0 0.0 0.0 27.25" Properties=species:S:1:pos:R:3 energy=-41.25037285450893 minima_index=4 pbc="T T T"
Si      12.95473984      12.56638286      14.76519027
Si      15.27030592      14.45589331      12.20883479
Si      15.17547605      12.99692835      13.89691320
Si      11.30378835      13.68400516      13.75433432
Si      13.42068985      14.42179032      13.49972742
5
Lattice="27.25 0.0 0.0 0.0 27.25 0.0 0.0 0.0 27.25" Properties=species:S:1:pos:R:3 energy=-41.250376530100056 minima_index=5 pbc="T T T"
Si      12.69297397      12.50889259      14.49100441
Si      15.51326018      14.40735352      12.51428562
Si      15.02572339      12.71119330      13.88214194
Si      11.33723179      14.04456458      13.59661348
Si      13.55581067      14.45299602      13.64095456
5
Lattice="27.25 0.0 0.0 0.0 27.25 0.0 0.0 0.0 27.25" Properties=species:S:1:pos:R:3 energy=-41.2504343884289 minima_index=6 pbc="T T T"
Si      12.74338903      12.54310887      14.58341273
Si      15.49383270      14.42663046      12.49967517
Si      15.07727927      12.86344787      14.04013008
Si      11.31891979      13.84915440      13.46227044
Si      13.49157921      14.44265840      13.53951158
5
Lattice="27.25 0.0 0.0 0.0 27.25 0.0 0.0 0.0 27.25" Properties=species:S:1:pos:R:3 energy=-41.250204596744965 minima_index=7 pbc="T T T"
Si      12.92553622      12.37195607      14.53259107
Si      13.72094370      15.24869672      11.96353590
Si      12.13118766      14.00644930      12.92291293
Si      15.14285676      12.34032905      14.82852766
Si      14.20447567      14.15756886      13.87743244
5
Lattice="27.25 0.0 0.0 0.0 27.25 0.0 0.0 0.0 27.25" Properties=species:S:1:pos:R:3 energy=-41.25033266693315 minima_index=8 pbc="T T T"
Si      13.22933743      12.26010258      14.54406804
Si      13.43624073      15.12541499      11.86026736
Si      12.18161626      13.49807862      12.74249286
Si      15.29376705      12.91888541      15.08340548
Si      13.98403853      14.32251840      13.89476627
5
Lattice="27.25 0.0 0.0 0.0 27.25 0.0 0.0 0.0 27.25" Properties=species:S:1:pos:R:3 energy=-43.72151338215962 minima_index=9 pbc="T T T"
Si      13.06995029      12.79409866      14.64118891
Si      12.84810165      14.67824937      13.05775350
Si      12.96723941      12.41457419      12.27872332
Si      14.96007427      13.40338246      13.17458841
Si      14.27963439      14.83469532      14.97274587
5
Lattice="27.25 0.0 0.0 0.0 27.25 0.0 0.0 0.0 27.25" Properties=species:S:1:pos:R:3 energy=-43.721515109496245 minima_index=10 pbc="T T T"
Si      12.44564608      12.82537488      13.65781742
Si      13.56729085      14.96143633      13.13049749
Si      14.00913631      12.98295380      11.84964114
Si      14.86442528      13.09071181      14.08684265
Si      13.23850148      14.26452318      15.40020131
5
Lattice="27.25 0.0 0.0 0.0 27.25 0.0 0.0 0.0 27.25" Properties=species:S:1:pos:R:3 energy=-43.72149347003396 minima_index=11 pbc="T T T"
Si      12.89489234      12.53924177      15.03919157
Si      14.35575223      14.71042210      12.21005174
Si      12.44384852      13.41771792      12.85602013
Si      14.72356814      12.72564955      13.50006556
Si      13.70693877      14.73196866      14.51967100
5
Lattice="27.25 0.0 0.0 0.0 27.25 0.0 0.0 0.0 27.25" Properties=species:S:1:pos:R:3 energy=-43.721504177131195 minima_index=12 pbc="T T T"
Si      12.83206598      12.50161484      14.97458555
Si      14.41667990      14.74821720      12.27596712
Si      12.46856361      13.46133554      12.80753755
Si      14.71681187      12.71528916      13.50681233
Si      13.69087865      14.69854325      14.56009746
