5
Lattice="27.25 0.0 0.0 0.0 27.25 0.0 0.0 0.0 27.25" Properties=species:S:1:pos:R:3 energy=-40.818241853646214 minima_index=1 pbc="T T T"
Si      11.97951003      14.84114936      14.32241852
Si      15.32215366      12.70336416      12.54124194
Si      15.70320419      14.29443275      13.94218721
Si      11.47517609      13.00039000      13.32069990
Si      13.64495603      13.28566372      13.99845243
5
Lattice="27.25 0.0 0.0 0.0 27.25 0.0 0.0 0.0 27.25" Properties=species:S:1:pos:R:3 energy=-40.82638511114638 minima_index=2 pbc="T T T"
Si      12.01762446      14.81435597      14.54365299
Si      15.20363793      12.54671233      12.50713257
Si      15.65431837      14.44328845      13.42545254
Si      11.51920970      12.95436213      13.58772321
Si      13.73020955      13.36628112      14.06103869
5
Lattice="27.25 0.0 0.0 0.0 27.25 0.0 0.0 0.0 27.25" Properties=species:S:1:pos:R:3 energy=-41.24931315937296 minima_index=3 pbc="T T T"
Si      11.41878389      13.68393793      14.34634197
Si      14.89851657      13.34540949      12.53992721
Si      15.62101520      14.66448260      14.19361577
Si      12.52481197      12.85556252      12.59163882
Si      13.66187237      13.57560745      14.45347623
5
Lattice="27.25 0.0 0.0 0.0 27.25 0.0 0.0 0.0 27.25" Properties=species:S:1:pos:R:3 energy=-41.25022864075865 minima_index=4 pbc="T T T"
Si      11.43753499      13.53103950      14.40903954
Si      14.87958171      13.37275691      12.52228213
Si      15.49965166      14.95561940      13.97075542
Si      12.61649512      12.56606418      12.77276067
Si      13.69173653      13.69952001      14.45016224
5
Lattice="27.25 0.0 0.0 0.0 27.25 0.0 0.0 0.0 27.25" Properties=species:S:1:pos:R:3 energy=-41.249937798019936 minima_index=5 pbc="T T T"
Si      14.13163569      15.42420460      15.00373820
Si      13.94694430      12.40136491      12.50050789
Si      12.01754071      11.94789215      13.54206199
Si      15.12788743      14.33281176      13.33219517
Si      12.90099188      14.01872657      13.74649675
5
Lattice="27.25 0.0 0.0 0.0 27.25 0.0 0.0 0.0 27.25" Properties=species:S:1:pos:R:3 energy=-41.25011352503294 minima_index=6 pbc="T T T"
Si      14.05792102      15.25480185      15.21912917
Si      14.01175704      12.47577887      12.44520995
Si      11.94528405      12.07621477      13.19311289
Si      15.19190537      14.27051149      13.57060898
Si      12.91813252      14.04769303      13.69693901
5
Lattice="27.25 0.0 0.0 0.0 27.25 0.0 0.0 0.0 27.25" Properties=species:S:1:pos:R:3 energy=-41.25012985856577 minima_index=7 pbc="T T T"
Si      13.82640013      15.66489008      14.72011334
Si      14.00513498      12.01318625      13.27820433
Si      11.95654447      12.45635872      12.50059459
Si      15.06400999      13.81307678      14.50737556
Si      13.27291043      14.17748817      13.11871218
5
Lattice="27.25 0.0 0.0 0.0 27.25 0.0 0.0 0.0 27.25" Properties=species:S:1:pos:R:3 energy=-41.250147711310206 minima_index=8 pbc="T T T"
Si      12.46514721      15.62834867      13.44553424
Si      14.05336254      12.14557670      14.32127355
Si      14.71834026      12.16421798      12.18584474
Si      12.79325978      14.08006410      15.02934691
Si      14.09489021      14.10679255      13.14300056
5
Lattice="27.25 0.0 0.0 0.0 27.25 0.0 0.0 0.0 27.25" Properties=species:S:1:pos:R:3 energy=-41.25035757544086 minima_index=9 pbc="T T T"
Si      12.37923485      15.45549857      12.92247266
Si      13.87774188      12.07698276      14.26489033
Si      15.71407583      12.71904495      13.16750417
Si      12.00500378      13.60295119      14.11407329
Si      14.14894366      14.27052254      13.65605956
5
Lattice="27.25 0.0 0.0 0.0 27.25 0.0 0.0 0.0 27.25" Properties=species:S:1:pos:R:3 energy=-41.247817059707955 minima_index=10 pbc="T T T"
Si      15.46122927      12.20889962      13.84827325
Si      12.63746551      14.92702804      14.03381889
Si      12.23296872      14.37196936      11.91175217
Si      14.36343418      13.66583670      15.14661905
Si      13.42990231      12.95126628      13.18453663
5
Lattice="27.25 0.0 0.0 0.0 27.25 0.0 0.0 0.0 27.25" Properties=species:S:1:pos:R:3 energy=-41.249103419051536 minima_index=11 pbc="T T T"
Si      15.27746152      12.05085342      14.05729878
Si      12.63747109      14.97425767      13.94037055
Si      12.58578216      14.52166729      11.75126711
Si      14.18145892      13.60178900      15.23055474
Si      13.44282631      12.97643263      13.14550882
5
Lattice="27.25 0.0 0.0 0.0 27.25 0.0 0.0 0.0 27.25" Properties=species:S:1:pos:R:3 energy=-41.249393559679945 minima_index=12 pbc="T T T"
Si      15.78517327      13.49256908      14.45981714
Si      11.99891884      14.08133711      13.61795888
Si      12.61776973      13.56442731      11.53483443
Si      13.75977994      14.02148570      15.26717233
Si      13.96335821      12.96518080      13.24521723
5
Lattice="27.25 0.0 0.0 0.0 27.25 0.0 0.0 0.0 27.25" Properties=species:S:1:pos:R:3 energy=-41.24944914907246 minima_index=13 pbc="T T T"
Si      15.13248460      12.46924758      14.96788947
Si      12.94380518      14.98341892      12.88619512
Si      12.22109531      13.15707937      11.82599357
Si      14.58655091      14.59971959      14.61741321
Si      13.24106400      12.91553455      13.82750862
5
Lattice="27.25 0.0 0.0 0.0 27.25 0.0 0.0 0.0 27.25" Properties=species:S:1:pos:R:3 energy=-41.24968574458053 minima_index=14 pbc="T T T"
Si      14.99385196      12.53927026      15.15948268
Si      13.11184963      14.90955572      12.64608820
Si      12.21810169      13.01322496      11.87508994
Si      14.63937229      14.65533170      14.51961248
Si      13.16182444      13.00761736      13.92472669
5
Lattice="27.25 0.0 0.0 0.0 27.25 0.0 0.0 0.0 27.25" Properties=species:S:1:pos:R:3 energy=-41.24990646732586 minima_index=15 pbc="T T T"
Si      12.61905340      12.35463677      15.28568180
Si      14.02544563      15.03941833      12.79926811
Si      15.47443550      13.43833279      12.23256728
Si      12.41880489      14.43475952      14.49164097
Si      13.58726058      12.85785259      13.31584185
5
Lattice="27.25 0.0 0.0 0.0 27.25 0.0 0.0 0.0 27.25" Properties=species:S:1:pos:R:3 energy=-41.25024573537968 minima_index=16 pbc="T T T"
Si      14.65838573      11.75991976      14.54271966
Si      13.16821417      15.25072575      13.53729653
Si      12.94577457      14.32479898      11.51357969
Si      14.13125459      13.81814420      15.23068157
Si      13.22137093      12.97141132      13.30072255
5
Lattice="27.25 0.0 0.0 0.0 27.25 0.0 0.0 0.0 27.25" Properties=species:S:1:pos:R:3 energy=-41.250116625980375 minima_index=17 pbc="T T T"
Si      12.22205650      15.41120895      14.11600201
Si      14.49186322      12.56892218      12.62957914
Si      15.30611466      12.43684561      14.70503753
Si      12.78798224      14.24957127      12.29578934
Si      13.31698338      13.45845199      14.37859198
5
Lattice="27.25 0.0 0.0 0.0 27.25 0.0 0.0 0.0 27.25" Properties=species:S:1:pos:R:3 energy=-41.2501769513059 minima_index=18 pbc="T T T"
Si      15.11494229      15.35034973      13.17149772
Si      12.13329989      12.93258602      14.04044560
Si      13.42344531      11.37667428      13.08444088
Si      13.07369772      15.16209043      14.07278072
Si      14.37961479      13.30329953      13.75583508
5
Lattice="27.25 0.0 0.0 0.0 27.25 0.0 0.0 0.0 27.25" Properties=species:S:1:pos:R:3 energy=-41.08222118550689 minima_index=19 pbc="T T T"
Si       9.43149092      13.40325697      21.98495850
Si       8.01201246      12.70744322      18.08211866
Si       8.50241852      10.74816252      18.89482265
Si      11.19065750      13.40528578      20.70484968
Si       9.28390566      12.56629227      19.91487809
5
Lattice="27.25 0.0 0.0 0.0 27.25 0.0 0.0 0.0 27.25" Properties=species:S:1:pos:R:3 energy=-41.25028086956515 minima_index=20 pbc="T T T"
Si      13.97728087      14.99006717      11.77417650
Si      13.92941805      13.01171145      15.17227433
Si      11.83798785      12.48097561      14.58189238
Si      15.12618678      14.41026861      13.60363078
Si      13.25412644      13.23197715      12.99302600
5
Lattice="27.25 0.0 0.0 0.0 27.25 0.0 0.0 0.0 27.25" Properties=species:S:1:pos:R:3 energy=-41.08215611951273 minima_index=21 pbc="T T T"
Si      15.80929375      14.45894458      13.34540734
Si      12.05525512      12.74132105      14.01692463
Si      11.94356374      13.51282723      11.98553174
Si      14.55943183      16.13711879      13.93980263
Si      13.58855636      14.21932400      13.31814562
5
Lattice="27.25 0.0 0.0 0.0 27.25 0.0 0.0 0.0 27.25" Properties=species:S:1:pos:R:3 energy=-41.249245063330704 minima_index=22 pbc="T T T"
Si      15.05846546      11.96177515      12.85771193
Si      12.39219803      14.78928885      13.51176999
Si      12.76358123      14.31005923      15.67065206
Si      13.63316766      13.42011105      11.95095457
Si      14.27758762      13.64376572      14.13391145
5
Lattice="27.25 0.0 0.0 0.0 27.25 0.0 0.0 0.0 27.25" Properties=species:S:1:pos:R:3 energy=-41.24925304688787 minima_index=23 pbc="T T T"
Si      14.45638110      11.48137151      13.95841224
Si      12.44052171      14.80134601      13.33485677
Si      14.28753756      15.79778757      14.12119008
Si      12.51741488      12.38401336      13.31179038
Si      14.42314474      13.66048155      13.39875053
5
Lattice="27.25 0.0 0.0 0.0 27.25 0.0 0.0 0.0 27.25" Properties=species:S:1:pos:R:3 energy=-41.24993591548882 minima_index=24 pbc="T T T"
Si      13.68074837      11.29837415      13.70253451
Si      12.91263015      15.15731238      13.46140524
Si      14.91486484      15.38009022      14.42905418
Si      12.21076293      12.87044840      13.09254918
Si      14.40599372      13.41877485      13.43945689
5
Lattice="27.25 0.0 0.0 0.0 27.25 0.0 0.0 0.0 27.25" Properties=species:S:1:pos:R:3 energy=-41.25016845678557 minima_index=25 pbc="T T T"
Si      13.99909545      11.45246739      12.88836605
Si      12.72186302      14.90317700      14.26577690
Si      14.89452326      15.36557741      14.49809779
Si      12.22190703      12.72577877      13.34520329
Si      14.28761124      13.67799944      13.12755597
5
Lattice="27.25 0.0 0.0 0.0 27.25 0.0 0.0 0.0 27.25" Properties=species:S:1:pos:R:3 energy=-41.24716356247086 minima_index=26 pbc="T T T"
Si      11.49928678      13.07603240      14.40215532
Si      15.23768433      14.09098312      13.78269933
Si      14.96720534      13.12204072      11.78562845
Si      13.28921243      14.14842988      15.19370022
Si      13.13161111      13.68751388      12.96081667
5
Lattice="27.25 0.0 0.0 0.0 27.25 0.0 0.0 0.0 27.25" Properties=species:S:1:pos:R:3 energy=-41.24824229339893 minima_index=27 pbc="T T T"
Si      11.50905570      13.12602219      14.43879879
Si      15.28566881      13.93769636      13.72150936
Si      14.79905740      13.28139281      11.65111724
Si      13.42228596      13.93144517      15.28801759
Si      13.10893213      13.84844347      13.02555702
5
Lattice="27.25 0.0 0.0 0.0 27.25 0.0 0.0 0.0 27.25" Properties=species:S:1:pos:R:3 energy=-41.249310838192116 minima_index=28 pbc="T T T"
Si      11.62873772      13.60550502      14.82283249
Si      15.28733397      13.87051372      13.38106830
Si      14.49250769      12.57487205      11.73813541
Si      13.69426182      14.39114287      15.13093385
Si      13.02215880      13.68296634      13.05202995
5
Lattice="27.25 0.0 0.0 0.0 27.25 0.0 0.0 0.0 27.25" Properties=species:S:1:pos:R:3 energy=-41.24947403610863 minima_index=29 pbc="T T T"
Si      11.94157042      13.54880194      15.22565157
Si      15.09084405      14.13510735      12.94348151
Si      14.45768084      12.22764947      11.96739209
Si      13.67677295      14.88313907      14.75481795
Si      12.95813173      13.33030217      13.23365688
5
Lattice="27.25 0.0 0.0 0.0 27.25 0.0 0.0 0.0 27.25" Properties=species:S:1:pos:R:3 energy=-41.24965900034556 minima_index=30 pbc="T T T"
Si      11.72692488      13.21770009      14.90997341
Si      15.02486733      14.46010291      13.14686239
Si      15.06880248      12.39644410      12.28026518
Si      13.17303825      14.89307150      14.64339533
Si      13.13136706      13.15768139      13.14450369
5
Lattice="27.25 0.0 0.0 0.0 27.25 0.0 0.0 0.0 27.25" Properties=species:S:1:pos:R:3 energy=-41.24912663982824 minima_index=31 pbc="T T T"
Si      11.57205968      14.08212839      14.61752180
Si      15.17636797      12.95540972      13.52422002
Si      14.48375839      13.49402500      11.46585027
Si      13.56202991      13.30795913      15.28634806
Si      13.33078406      14.28547777      13.23105985
5
Lattice="27.25 0.0 0.0 0.0 27.25 0.0 0.0 0.0 27.25" Properties=species:S:1:pos:R:3 energy=-42.185818481716666 minima_index=32 pbc="T T T"
Si      11.93215788      13.67766891      14.25655070
Si      13.81082402      12.25817732      13.76431008
Si      14.68849310      13.19962010      11.81963425
Si      14.07896544      14.11726494      15.26140422
Si      13.61455956      14.87226872      13.02310074
5
Lattice="27.25 0.0 0.0 0.0 27.25 0.0 0.0 0.0 27.25" Properties=species:S:1:pos:R:3 energy=-43.72027466424184 minima_index=33 pbc="T T T"
Si      12.20123135      13.52576906      13.59048080
Si      13.74392912      11.78452363      14.16466421
Si      14.37826297      13.33091326      12.44505522
Si      14.29408646      14.01150033      14.82105352
Si      13.50749010      15.47229372      13.10374625
5
Lattice="27.25 0.0 0.0 0.0 27.25 0.0 0.0 0.0 27.25" Properties=species:S:1:pos:R:3 energy=-43.72079748875467 minima_index=34 pbc="T T T"
Si      12.24111348      13.27225992      13.69745904
Si      14.10032272      11.97565347      14.49668625
Si      14.39814516      13.24577845      12.48765341
Si      14.22189296      14.35504202      14.69190967
Si      13.16352568      15.27626614      12.75129163
5
Lattice="27.25 0.0 0.0 0.0 27.25 0.0 0.0 0.0 27.25" Properties=species:S:1:pos:R:3 energy=-43.72110246604561 minima_index=35 pbc="T T T"
Si      12.49062265      12.77443324      13.81200909
Si      14.64574479      12.12758180      12.97809675
Si      13.81761324      14.29014471      12.38164386
Si      14.56377430      13.80587020      14.68524200
Si      12.60724501      15.12697005      14.26800830
5
Lattice="27.25 0.0 0.0 0.0 27.25 0.0 0.0 0.0 27.25" Properties=species:S:1:pos:R:3 energy=-43.72131263454394 minima_index=36 pbc="T T T"
Si      12.35078265      13.03046617      13.86286980
Si      14.40160226      11.87734086      13.40054527
Si      14.01663213      13.96744050      12.29552135
Si      14.50338552      13.87378428      14.71728831
Si      12.85259744      15.37596819      13.84877528
5
Lattice="27.25 0.0 0.0 0.0 27.25 0.0 0.0 0.0 27.25" Properties=species:S:1:pos:R:3 energy=-43.721340428220415 minima_index=37 pbc="T T T"
Si      12.98461488      12.46941666      14.16463591
Si      15.29792528      13.05822898      14.39346108
Si      14.20803877      13.58129519      12.32346275
Si      13.68116529      14.82666238      14.38656050
Si      11.95325578      14.18939678      12.85687976
5
Lattice="27.25 0.0 0.0 0.0 27.25 0.0 0.0 0.0 27.25" Properties=species:S:1:pos:R:3 energy=-43.72119634092707 minima_index=38 pbc="T T T"
Si      12.20263828      13.69021259      13.70900227
Si      13.67322382      12.55255957      15.22787378
Si      14.25223944      12.56850645      12.90051364
Si      14.42289193      14.62090440      14.26526141
Si      13.57400653      14.69281699      12.02234890
5
Lattice="27.25 0.0 0.0 0.0 27.25 0.0 0.0 0.0 27.25" Properties=species:S:1:pos:R:3 energy=-43.72120991538046 minima_index=39 pbc="T T T"
Si      12.22364578      13.84012203      13.45557622
Si      13.27676184      12.64545639      15.24588356
Si      14.24911627      12.47148723      13.06192848
Si      14.40564435      14.56466821      14.35670341
Si      13.96983177      14.60326614      12.00490833
5
Lattice="27.25 0.0 0.0 0.0 27.25 0.0 0.0 0.0 27.25" Properties=species:S:1:pos:R:3 energy=-43.72124704349554 minima_index=40 pbc="T T T"
Si      12.20132797      13.64650030      13.53334885
Si      13.54821915      11.86566385      14.40332863
Si      14.39466839      13.11367401      12.54266159
Si      14.27140856      14.11265952      14.79648144
Si      13.70937593      15.38650232      12.84917948
5
Lattice="27.25 0.0 0.0 0.0 27.25 0.0 0.0 0.0 27.25" Properties=species:S:1:pos:R:3 energy=-43.72136387563685 minima_index=41 pbc="T T T"
Si      13.67601829      14.93098024      13.05569401
Si      11.70380609      13.65901043      13.51832898
Si      13.65166912      12.47676778      12.78237424
Si      13.54429184      13.46498822      15.03808321
Si      15.54921467      13.59325333      13.73051956
5
Lattice="27.25 0.0 0.0 0.0 27.25 0.0 0.0 0.0 27.25" Properties=species:S:1:pos:R:3 energy=-43.72123968424218 minima_index=42 pbc="T T T"
Si      13.23606063      14.96773788      13.33411180
Si      12.46896680      12.98758837      12.22484088
Si      14.74857080      13.04729660      12.95916153
Si      12.88878853      12.85994036      14.58028474
Si      14.78261325      14.26243678      15.02660105
5
Lattice="27.25 0.0 0.0 0.0 27.25 0.0 0.0 0.0 27.25" Properties=species:S:1:pos:R:3 energy=-43.72129696948803 minima_index=43 pbc="T T T"
Si      13.10531131      14.84491599      13.10388129
Si      13.10763065      12.71529300      12.00441251
Si      14.98718275      13.27333412      13.39154432
Si      12.78745980      12.75442111      14.37965562
Si      14.13741549      14.53703578      15.24550625
5
Lattice="27.25 0.0 0.0 0.0 27.25 0.0 0.0 0.0 27.25" Properties=species:S:1:pos:R:3 energy=-43.721396273501156 minima_index=44 pbc="T T T"
Si      13.36302634      14.28431153      12.38662064
Si      15.16979263      12.77523109      12.84990086
Si      14.45789747      14.24786676      14.60256567
Si      13.05200359      12.34551999      13.88255459
Si      12.08227998      14.47207063      14.40335824
5
Lattice="27.25 0.0 0.0 0.0 27.25 0.0 0.0 0.0 27.25" Properties=species:S:1:pos:R:3 energy=-43.72124910484641 minima_index=45 pbc="T T T"
Si      13.46890923      14.43297342      12.45784943
Si      15.42285354      13.19284271      13.08599013
Si      14.12558887      14.20182457      14.83237090
Si      13.27945869      12.24035424      13.58512946
Si      11.82818966      14.05700506      14.16366008
5
Lattice="27.25 0.0 0.0 0.0 27.25 0.0 0.0 0.0 27.25" Properties=species:S:1:pos:R:3 energy=-43.72140117658611 minima_index=46 pbc="T T T"
Si      12.35578048      13.45169557      12.99564364
Si      13.44482242      15.53294724      13.45232821
Si      13.70657763      13.75917661      15.04269008
Si      14.81466948      13.66554405      12.83886518
Si      13.80314999      11.71563652      13.79547289
5
Lattice="27.25 0.0 0.0 0.0 27.25 0.0 0.0 0.0 27.25" Properties=species:S:1:pos:R:3 energy=-43.721420151902564 minima_index=47 pbc="T T T"
Si      12.60180372      13.87591073      12.66665130
Si      14.96054595      14.10581864      12.32501675
Si      14.07564311      14.67753238      14.47751732
Si      14.19935813      12.32435838      13.73412393
Si      12.28764908      13.14137988      14.92169070
5
Lattice="27.25 0.0 0.0 0.0 27.25 0.0 0.0 0.0 27.25" Properties=species:S:1:pos:R:3 energy=-43.72150191884499 minima_index=48 pbc="T T T"
Si      14.84556335      14.36244784      13.58657018
Si      13.95879875      13.16732729      15.46645731
Si      12.41246200      14.27207182      14.00577780
Si      13.61798395      12.24014482      13.28169738
Si      13.29019195      14.08300823      11.78449733
5
Lattice="27.25 0.0 0.0 0.0 27.25 0.0 0.0 0.0 27.25" Properties=species:S:1:pos:R:3 energy=-43.72096119282576 minima_index=49 pbc="T T T"
Si      14.00629126      14.85907115      14.23195766
Si      12.13242390      14.49440599      12.77879664
Si      14.14678701      13.27833669      12.34416110
Si      12.72640109      12.75013602      14.30322089
Si      15.11309676      12.74305016      14.46686371
5
Lattice="27.25 0.0 0.0 0.0 27.25 0.0 0.0 0.0 27.25" Properties=species:S:1:pos:R:3 energy=-43.72102941682376 minima_index=50 pbc="T T T"
Si      13.69296631      15.01700722      13.93947641
Si      12.21239131      13.97566493      12.36524463
Si      14.42746534      13.09112411      12.57430176
Si      12.75397534      12.77155470      14.35715715
Si      15.03820170      13.26964904      14.88882006
5
Lattice="27.25 0.0 0.0 0.0 27.25 0.0 0.0 0.0 27.25" Properties=species:S:1:pos:R:3 energy=-43.7213223598403 minima_index=51 pbc="T T T"
Si      13.82253831      14.96312394      14.08415108
Si      12.40664170      14.26567087      12.27523887
Si      14.46841492      13.08621665      12.60994084
Si      12.58566515      12.82646652      14.18309770
Si      14.84173992      12.98352202      14.97257152
5
Lattice="27.25 0.0 0.0 0.0 27.25 0.0 0.0 0.0 27.25" Properties=species:S:1:pos:R:3 energy=-43.72134966091285 minima_index=52 pbc="T T T"
Si      13.70611108      15.03565415      13.81796860
Si      12.19785798      13.88306194      12.35828464
Si      14.41091064      12.99780385      12.61185935
Si      12.75710960      12.83990593      14.44294879
Si      15.05301070      13.36857414      14.89393862
5
Lattice="27.25 0.0 0.0 0.0 27.25 0.0 0.0 0.0 27.25" Properties=species:S:1:pos:R:3 energy=-43.721327228346695 minima_index=53 pbc="T T T"
Si      13.01537236      13.83802054      12.35229261
Si      13.89437159      11.77285924      13.18487689
Si      15.03431221      13.79283029      13.77930542
Si      12.82557987      13.24260342      14.74450823
Si      13.35536398      15.47868652      14.06401685
