5
Lattice="27.25 0.0 0.0 0.0 27.25 0.0 0.0 0.0 27.25" Properties=species:S:1:pos:R:3 energy=-43.7215465328411 minima_index=83 pbc="T T T"
Si      14.46191987      12.95208433      12.68743103
Si      12.24399639      13.28364759      13.72330633
Si      14.04758390      12.29734586      14.95553347
Si      13.20131640      14.95186442      12.29461704
Si      14.17018344      14.64005780      14.46411213
